    4    4    1    1
  0.9829158E+01  0.5862275E-09  0.5862275E-09  0.5862275E-09  0.5000000E-15
  1.000000000000000E-004
  CAR 
 unknown system                          
     34    116     36
