 vasp.5.4.4.18Apr17-6-g9f103f2a35 (build Dec 13 2019 19:06:22) complex          
  
 executed on             LinuxIFC date 2021.08.12  13:58:56
 running on   12 total cores
 distrk:  each k-point on    2 cores,    6 groups
 distr:  one band on NCORES_PER_BAND=   1 cores,    2 groups


--------------------------------------------------------------------------------------------------------


 INCAR:
 POTCAR:    PAW_PBE Cu_sv_GW 05Dec2013            
 POTCAR:    PAW_PBE Al_GW 19Mar2012               
 POTCAR:    PAW_PBE O_GW 28Sep2005                

 ----------------------------------------------------------------------------- 
|                                                                             |
|           W    W    AA    RRRRR   N    N  II  N    N   GGGG   !!!           |
|           W    W   A  A   R    R  NN   N  II  NN   N  G    G  !!!           |
|           W    W  A    A  R    R  N N  N  II  N N  N  G       !!!           |
|           W WW W  AAAAAA  RRRRR   N  N N  II  N  N N  G  GGG   !            |
|           WW  WW  A    A  R   R   N   NN  II  N   NN  G    G                |
|           W    W  A    A  R    R  N    N  II  N    N   GGGG   !!!           |
|                                                                             |
|      For optimal performance we recommend to set                            |
|        NCORE= 4 - approx SQRT( number of cores)                             |
|      NCORE specifies how many cores store one orbital (NPAR=cpu/NCORE).     |
|      This setting can  greatly improve the performance of VASP for DFT.     |
|      The default,   NCORE=1            might be grossly inefficient         |
|      on modern multi-core architectures or massively parallel machines.     |
|      Do your own testing !!!!                                               |
|      Unfortunately you need to use the default for GW and RPA calculations. |
|      (for HF NCORE is supported but not extensively tested yet)             |
|                                                                             |
 ----------------------------------------------------------------------------- 


 ----------------------------------------------------------------------------- 
|                                                                             |
|           W    W    AA    RRRRR   N    N  II  N    N   GGGG   !!!           |
|           W    W   A  A   R    R  NN   N  II  NN   N  G    G  !!!           |
|           W    W  A    A  R    R  N N  N  II  N N  N  G       !!!           |
|           W WW W  AAAAAA  RRRRR   N  N N  II  N  N N  G  GGG   !            |
|           WW  WW  A    A  R   R   N   NN  II  N   NN  G    G                |
|           W    W  A    A  R    R  N    N  II  N    N   GGGG   !!!           |
|                                                                             |
|      You have enabled k-point parallelism (KPAR>1).                         |
|      This developmental code was originally  written by Paul Kent at ORNL,  |
|      and carefully double checked in Vienna.                                |
|      GW as well as linear response parallelism added by Martijn Marsman     |
|      and Georg Kresse.                                                      |
|      Carefully verify results versus KPAR=1.                                |
|      Report problems to Paul Kent and Vienna.                               |
|                                                                             |
 ----------------------------------------------------------------------------- 

 POTCAR:    PAW_PBE Cu_sv_GW 05Dec2013            
   VRHFIN =Cu: d10 p1                                                           
   LEXCH  = PE                                                                  
   EATOM  =  5382.7943 eV,  395.6242 Ry                                         
                                                                                
   TITEL  = PAW_PBE Cu_sv_GW 05Dec2013                                          
   LULTRA =        F    use ultrasoft PP ?                                      
   IUNSCR =        1    unscreen: 0-lin 1-nonlin 2-no                           
   RPACOR =    1.400    partial core radius                                     
   POMASS =   63.546; ZVAL   =   19.000    mass and valenz                      
   RCORE  =    1.900    outmost cutoff radius                                   
   RWIGS  =    2.100; RWIGS  =    1.111    wigner-seitz radius (au A)           
   ENMAX  =  391.688; ENMIN  =  293.766 eV                                      
   RCLOC  =    1.304    cutoff for local pot                                    
   LCOR   =        T    correct aug charges                                     
   LPAW   =        T    paw PP                                                  
   EAUG   =  982.892                                                            
   RMAX   =    1.950    core radius for proj-oper                               
   RAUG   =    1.300    factor for augmentation sphere                          
   RDEP   =    2.025    radius for radial grids                                 
   RDEPT  =    1.600    core radius for aug-charge                              
                                                                                
   Atomic configuration                                                         
    9 entries                                                                   
     n  l   j            E        occ.                                          
     1  0  0.50     -8850.2467   2.0000                                         
     2  0  0.50     -1062.3498   2.0000                                         
     2  1  1.50      -916.8226   6.0000                                         
     3  0  0.50      -114.6929   2.0000                                         
     4  0  0.50        -4.6097   1.0000                                         
     3  1  1.50       -72.1325   6.0000                                         
     3  1  1.50       -76.2144   0.0000                                         
     3  2  2.50        -5.0394  10.0000                                         
     4  3  2.50        -1.3606   0.0000                                         
   Description                                                                  
     l       E           TYP  RCUT    TYP  RCUT                                 
     0   -114.6929173     23  1.330                                             
     0     -4.6097111     23  1.700                                             
     0    204.0873900     23  1.330                                             
     1    -72.1324964     23  1.650                                             
     1    -76.2143949     23  1.650                                             
     1    136.0582600     23  1.650                                             
     2     -5.0393943     23  1.900                                             
     2     27.2116520     23  1.900                                             
     2    136.0582600     23  1.900                                             
     3     27.2116520     23  1.900                                             
     3    136.0582600     23  1.900                                             
  local pseudopotential read in
  partial core-charges read in
  partial kinetic energy density read in
  kinetic energy density of atom read in
  atomic valenz-charges read in
  non local Contribution for L=           0  read in
    real space projection operators read in
  non local Contribution for L=           0  read in
    real space projection operators read in
  non local Contribution for L=           0  read in
    real space projection operators read in
  non local Contribution for L=           1  read in
    real space projection operators read in
  non local Contribution for L=           1  read in
    real space projection operators read in
  non local Contribution for L=           1  read in
    real space projection operators read in
  non local Contribution for L=           2  read in
    real space projection operators read in
  non local Contribution for L=           2  read in
    real space projection operators read in
  non local Contribution for L=           2  read in
    real space projection operators read in
  non local Contribution for L=           3  read in
    real space projection operators read in
  non local Contribution for L=           3  read in
    real space projection operators read in
    PAW grid and wavefunctions read in
 
   number of l-projection  operators is LMAX  =          11
   number of lm-projection operators is LMMAX =          41
 
 POTCAR:    PAW_PBE Al_GW 19Mar2012               
   VRHFIN =Al: s2p1                                                             
   LEXCH  = PE                                                                  
   EATOM  =    53.5387 eV,    3.9350 Ry                                         
                                                                                
   TITEL  = PAW_PBE Al_GW 19Mar2012                                             
   LULTRA =        F    use ultrasoft PP ?                                      
   IUNSCR =        1    unscreen: 0-lin 1-nonlin 2-no                           
   RPACOR =    1.500    partial core radius                                     
   POMASS =   26.982; ZVAL   =    3.000    mass and valenz                      
   RCORE  =    2.000    outmost cutoff radius                                   
   RWIGS  =    2.000; RWIGS  =    1.058    wigner-seitz radius (au A)           
   ENMAX  =  240.300; ENMIN  =  180.225 eV                                      
   ICORE  =        3    local potential                                         
   LCOR   =        T    correct aug charges                                     
   LPAW   =        T    paw PP                                                  
   EAUG   =  482.059                                                            
   DEXC   =    0.000                                                            
   RMAX   =    2.051    core radius for proj-oper                               
   RAUG   =    1.300    factor for augmentation sphere                          
   RDEP   =    2.096    radius for radial grids                                 
   RDEPT  =    1.856    core radius for aug-charge                              
                                                                                
   Atomic configuration                                                         
    7 entries                                                                   
     n  l   j            E        occ.                                          
     1  0  0.50     -1511.1048   2.0000                                         
     2  0  0.50      -108.1629   2.0000                                         
     2  1  1.50       -69.6402   6.0000                                         
     3  0  0.50        -7.7528   2.0000                                         
     3  1  1.50        -2.7121   1.0000                                         
     3  2  2.50        -2.7212   0.0000                                         
     4  3  2.50        -2.7212   0.0000                                         
   Description                                                                  
     l       E           TYP  RCUT    TYP  RCUT                                 
     0     -7.7528455     23  1.900                                             
     0     68.0291300     23  1.900                                             
     1     -2.7120682     23  1.900                                             
     1     68.0291300     23  1.900                                             
     2     -1.3605826     23  1.900                                             
     2     81.6349560     23  1.900                                             
     3     74.8320430     23  2.000                                             
  local pseudopotential read in
  partial core-charges read in
  partial kinetic energy density read in
  kinetic energy density of atom read in
  atomic valenz-charges read in
  non local Contribution for L=           0  read in
    real space projection operators read in
  non local Contribution for L=           0  read in
    real space projection operators read in
  non local Contribution for L=           1  read in
    real space projection operators read in
  non local Contribution for L=           1  read in
    real space projection operators read in
  non local Contribution for L=           2  read in
    real space projection operators read in
  non local Contribution for L=           2  read in
    real space projection operators read in
    PAW grid and wavefunctions read in
 
   number of l-projection  operators is LMAX  =           6
   number of lm-projection operators is LMMAX =          18
 
 POTCAR:    PAW_PBE O_GW 28Sep2005                
   VRHFIN =O: s2p4                                                              
   LEXCH  = PE                                                                  
   EATOM  =   432.3788 eV,   31.7789 Ry                                         
                                                                                
   TITEL  = PAW_PBE O_GW 28Sep2005                                              
   LULTRA =        F    use ultrasoft PP ?                                      
   IUNSCR =        0    unscreen: 0-lin 1-nonlin 2-no                           
   RPACOR =    0.000    partial core radius                                     
   POMASS =   16.000; ZVAL   =    6.000    mass and valenz                      
   RCORE  =    1.520    outmost cutoff radius                                   
   RWIGS  =    1.550; RWIGS  =    0.820    wigner-seitz radius (au A)           
   ENMAX  =  414.635; ENMIN  =  310.976 eV                                      
   ICORE  =        2    local potential                                         
   LCOR   =        T    correct aug charges                                     
   LPAW   =        T    paw PP                                                  
   EAUG   =  605.392                                                            
   DEXC   =    0.000                                                            
   RMAX   =    1.553    core radius for proj-oper                               
   RAUG   =    1.300    factor for augmentation sphere                          
   RDEP   =    1.550    radius for radial grids                                 
   RDEPT  =    1.329    core radius for aug-charge                              
                                                                                
   Atomic configuration                                                         
    4 entries                                                                   
     n  l   j            E        occ.                                          
     1  0  0.50      -514.6923   2.0000                                         
     2  0  0.50       -23.9615   2.0000                                         
     2  1  0.50        -9.0305   4.0000                                         
     3  2  1.50        -9.5241   0.0000                                         
   Description                                                                  
     l       E           TYP  RCUT    TYP  RCUT                                 
     0    -23.9615316     23  1.200                                             
     0     81.6349560     23  1.200                                             
     1     -9.0304908     23  1.520                                             
     1     81.6349560     23  1.520                                             
     2     -9.5240782      7  1.500                                             
  local pseudopotential read in
  kinetic energy density of atom read in
  atomic valenz-charges read in
  non local Contribution for L=           0  read in
    real space projection operators read in
  non local Contribution for L=           0  read in
    real space projection operators read in
  non local Contribution for L=           1  read in
    real space projection operators read in
  non local Contribution for L=           1  read in
    real space projection operators read in
    PAW grid and wavefunctions read in
 
   number of l-projection  operators is LMAX  =           4
   number of lm-projection operators is LMMAX =           8
 

 ----------------------------------------------------------------------------- 
|                                                                             |
|  ADVICE TO THIS USER RUNNING 'VASP/VAMP'   (HEAR YOUR MASTER'S VOICE ...):  |
|                                                                             |
|      You enforced a specific xc-type in the INCAR file,                     |
|      a different type was found on the POTCAR file                          |
|          I HOPE YOU KNOW, WHAT YOU ARE  DOING                               |
|                                                                             |
 ----------------------------------------------------------------------------- 

  PAW_PBE Cu_sv_GW 05Dec2013            :
 energy of atom  1       EATOM=-5382.7943
 kinetic energy error for atom=    0.0943 (will be added to EATOM!!)
  PAW_PBE Al_GW 19Mar2012               :
 energy of atom  2       EATOM=  -53.5387
 kinetic energy error for atom=    0.0002 (will be added to EATOM!!)
  PAW_PBE O_GW 28Sep2005                :
 energy of atom  3       EATOM= -432.3788
 kinetic energy error for atom=    0.0194 (will be added to EATOM!!)
 
 
 POSCAR: CuAlO2 BenkoF84                         
  positions in direct lattice
  No initial velocities read in
 exchange correlation table for  LEXCH =       14
   RHO(1)=    0.500       N(1)  =     2000
   RHO(2)=  100.500       N(2)  =     4000
 


--------------------------------------------------------------------------------------------------------


 ion  position               nearest neighbor table
   1  0.000  0.000  0.000-   3 1.85   4 1.85
   2  0.500  0.500  0.500-   3 1.90   4 1.90   3 1.90   3 1.90   4 1.90   4 1.90
   3  0.110  0.110  0.110-   1 1.85   2 1.90   2 1.90   2 1.90
   4  0.890  0.890  0.890-   1 1.85   2 1.90   2 1.90   2 1.90
 
  LATTYP: Found a trigonal (rhomboedric) cell.
 ALAT       =     5.8622747487
 COS(alpha) =     0.8826433487
  
  Lattice vectors:
  
 A1 = (   1.4200545446,   0.8198688751,   5.6282790774)
 A2 = (  -1.4200545446,   0.8198688751,   5.6282790774)
 A3 = (   0.0000000000,  -1.6397377402,   5.6282790774)


Analysis of symmetry for initial positions (statically):
=====================================================================
 Subroutine PRICEL returns:
 Original cell was already a primitive cell.
 

 Routine SETGRP: Setting up the symmetry group for a 
 trigonal (rhombohedral) supercell.


 Subroutine GETGRP returns: Found 12 space group operations
 (whereof 12 operations were pure point group operations)
 out of a pool of 12 trial point group operations.


The static configuration has the point symmetry D_3d.


Analysis of symmetry for dynamics (positions and initial velocities):
=====================================================================
 Subroutine PRICEL returns:
 Original cell was already a primitive cell.
 

 Routine SETGRP: Setting up the symmetry group for a 
 trigonal (rhombohedral) supercell.


 Subroutine GETGRP returns: Found 12 space group operations
 (whereof 12 operations were pure point group operations)
 out of a pool of 12 trial point group operations.


The dynamic configuration has the point symmetry D_3d.


 Subroutine INISYM returns: Found 12 space group operations
 (whereof 12 operations are pure point group operations),
 and found     1 'primitive' translations

 
 
 KPOINTS: CuMO2                                   

Automatic generation of k-mesh.
Space group operators:
 irot       det(A)        alpha          n_x          n_y          n_z        tau_x        tau_y        tau_z
    1     1.000000     0.000000     1.000000     0.000000     0.000000     0.000000     0.000000     0.000000
    2    -1.000000     0.000000     1.000000     0.000000     0.000000     0.000000     0.000000     0.000000
    3     1.000000   180.000000    -0.500000     0.866025    -0.000000     0.000000     0.000000     0.000000
    4    -1.000000   180.000000    -0.500000     0.866025    -0.000000     0.000000     0.000000     0.000000
    5     1.000000   120.000000     0.000000    -0.000000    -1.000000     0.000000     0.000000     0.000000
    6    -1.000000   120.000000     0.000000    -0.000000    -1.000000     0.000000     0.000000     0.000000
    7     1.000000   180.000000     1.000000     0.000000     0.000000     0.000000     0.000000     0.000000
    8    -1.000000   180.000000     1.000000     0.000000     0.000000     0.000000     0.000000     0.000000
    9     1.000000   120.000000     0.000000     0.000000     1.000000     0.000000     0.000000     0.000000
   10    -1.000000   120.000000     0.000000     0.000000     1.000000     0.000000     0.000000     0.000000
   11     1.000000   180.000000     0.500000     0.866025    -0.000000     0.000000     0.000000     0.000000
   12    -1.000000   180.000000     0.500000     0.866025    -0.000000     0.000000     0.000000     0.000000
 
 Subroutine IBZKPT returns following result:
 ===========================================
 
 Found    116 irreducible k-points:
 
 Following reciprocal coordinates:
            Coordinates               Weight
  0.000000  0.000000  0.000000      1.000000
  0.100000  0.000000  0.000000      6.000000
  0.200000  0.000000  0.000000      6.000000
  0.300000  0.000000  0.000000      6.000000
  0.400000  0.000000  0.000000      6.000000
  0.500000  0.000000  0.000000      3.000000
  0.100000  0.100000  0.000000      6.000000
  0.200000  0.100000  0.000000     12.000000
  0.300000  0.100000  0.000000     12.000000
  0.400000  0.100000  0.000000     12.000000
  0.500000  0.100000  0.000000     12.000000
 -0.400000  0.100000 -0.000000     12.000000
 -0.300000  0.100000 -0.000000     12.000000
 -0.200000  0.100000 -0.000000     12.000000
 -0.100000  0.100000  0.000000      6.000000
  0.200000  0.200000  0.000000      6.000000
  0.300000  0.200000  0.000000     12.000000
  0.400000  0.200000  0.000000     12.000000
  0.500000  0.200000 -0.000000     12.000000
 -0.400000  0.200000 -0.000000     12.000000
 -0.300000  0.200000 -0.000000     12.000000
 -0.200000  0.200000  0.000000      6.000000
  0.300000  0.300000  0.000000      6.000000
  0.400000  0.300000  0.000000     12.000000
  0.500000  0.300000  0.000000     12.000000
 -0.400000  0.300000  0.000000     12.000000
 -0.300000  0.300000  0.000000      6.000000
  0.400000  0.400000  0.000000      6.000000
  0.500000  0.400000 -0.000000     12.000000
 -0.400000  0.400000  0.000000      6.000000
  0.500000  0.500000  0.000000      3.000000
  0.100000  0.100000  0.100000      2.000000
  0.200000  0.100000  0.100000      6.000000
  0.300000  0.100000  0.100000      6.000000
  0.400000  0.100000  0.100000      6.000000
  0.500000  0.100000  0.100000      6.000000
 -0.400000  0.100000  0.100000      6.000000
 -0.300000  0.100000  0.100000      6.000000
 -0.200000  0.100000  0.100000      6.000000
 -0.100000  0.100000  0.100000      6.000000
  0.200000  0.200000  0.100000      6.000000
  0.300000  0.200000  0.100000     12.000000
  0.400000  0.200000  0.100000     12.000000
  0.500000  0.200000  0.100000     12.000000
 -0.400000  0.200000  0.100000     12.000000
 -0.300000  0.200000  0.100000     12.000000
 -0.200000  0.200000  0.100000     12.000000
 -0.100000  0.200000  0.100000     12.000000
  0.300000  0.300000  0.100000      6.000000
  0.400000  0.300000  0.100000     12.000000
  0.500000  0.300000  0.100000     12.000000
 -0.400000  0.300000  0.100000     12.000000
 -0.300000  0.300000  0.100000     12.000000
 -0.200000  0.300000  0.100000     12.000000
 -0.100000  0.300000  0.100000     12.000000
  0.400000  0.400000  0.100000      6.000000
  0.500000  0.400000  0.100000     12.000000
 -0.400000  0.400000  0.100000     12.000000
 -0.300000  0.400000  0.100000     12.000000
 -0.200000  0.400000  0.100000     12.000000
 -0.100000  0.400000  0.100000     12.000000
  0.500000  0.500000  0.100000      6.000000
 -0.400000  0.500000  0.100000     12.000000
 -0.300000  0.500000  0.100000     12.000000
 -0.200000  0.500000  0.100000     12.000000
 -0.100000  0.500000  0.100000      6.000000
 -0.400000 -0.400000  0.100000      6.000000
 -0.300000 -0.400000  0.100000     12.000000
 -0.200000 -0.400000  0.100000     12.000000
 -0.300000 -0.300000  0.100000      6.000000
 -0.200000 -0.300000  0.100000     12.000000
 -0.200000 -0.200000  0.100000      6.000000
  0.200000  0.200000  0.200000      2.000000
  0.300000  0.200000  0.200000      6.000000
  0.400000  0.200000  0.200000      6.000000
  0.500000  0.200000  0.200000      6.000000
 -0.400000  0.200000  0.200000      6.000000
 -0.300000  0.200000  0.200000      6.000000
 -0.200000  0.200000  0.200000      6.000000
  0.300000  0.300000  0.200000      6.000000
  0.400000  0.300000  0.200000     12.000000
  0.500000  0.300000  0.200000     12.000000
 -0.400000  0.300000  0.200000     12.000000
 -0.300000  0.300000  0.200000     12.000000
 -0.200000  0.300000  0.200000     12.000000
  0.400000  0.400000  0.200000      6.000000
  0.500000  0.400000  0.200000     12.000000
 -0.400000  0.400000  0.200000     12.000000
 -0.300000  0.400000  0.200000     12.000000
 -0.200000  0.400000  0.200000     12.000000
  0.500000  0.500000  0.200000      6.000000
 -0.400000  0.500000  0.200000     12.000000
 -0.300000  0.500000  0.200000     12.000000
 -0.200000  0.500000  0.200000      6.000000
 -0.400000 -0.400000  0.200000      6.000000
 -0.300000 -0.400000  0.200000     12.000000
 -0.300000 -0.300000  0.200000      6.000000
  0.300000  0.300000  0.300000      2.000000
  0.400000  0.300000  0.300000      6.000000
  0.500000  0.300000  0.300000      6.000000
 -0.400000  0.300000  0.300000      6.000000
 -0.300000  0.300000  0.300000      6.000000
  0.400000  0.400000  0.300000      6.000000
  0.500000  0.400000  0.300000     12.000000
 -0.400000  0.400000  0.300000     12.000000
 -0.300000  0.400000  0.300000     12.000000
  0.500000  0.500000  0.300000      6.000000
 -0.400000  0.500000  0.300000     12.000000
 -0.300000  0.500000  0.300000      6.000000
 -0.400000 -0.400000  0.300000      6.000000
  0.400000  0.400000  0.400000      2.000000
  0.500000  0.400000  0.400000      6.000000
 -0.400000  0.400000  0.400000      6.000000
  0.500000  0.500000  0.400000      6.000000
 -0.400000  0.500000  0.400000      6.000000
  0.500000  0.500000  0.500000      1.000000
 
 Following cartesian coordinates:
            Coordinates               Weight
  0.000000  0.000000  0.000000      1.000000
  0.035210  0.020328  0.005922      6.000000
  0.070420  0.040657  0.011845      6.000000
  0.105630  0.060985  0.017767      6.000000
  0.140840  0.081314  0.023690      6.000000
  0.176050  0.101642  0.029612      3.000000
  0.000000  0.040657  0.011845      6.000000
  0.035210  0.060985  0.017767     12.000000
  0.070420  0.081314  0.023690     12.000000
  0.105630  0.101642  0.029612     12.000000
  0.140840  0.121971  0.035535     12.000000
 -0.176050 -0.060985 -0.017767     12.000000
 -0.140840 -0.040657 -0.011845     12.000000
 -0.105630 -0.020328 -0.005922     12.000000
 -0.070420  0.000000  0.000000      6.000000
 -0.000000  0.081314  0.023690      6.000000
  0.035210  0.101642  0.029612     12.000000
  0.070420  0.121971  0.035535     12.000000
  0.105630  0.142299  0.041457     12.000000
 -0.211259 -0.040657 -0.011845     12.000000
 -0.176050 -0.020328 -0.005922     12.000000
 -0.140840  0.000000  0.000000      6.000000
  0.000000  0.121971  0.035535      6.000000
  0.035210  0.142299  0.041457     12.000000
  0.070420  0.162628  0.047380     12.000000
 -0.246469 -0.020328 -0.005922     12.000000
 -0.211259 -0.000000  0.000000      6.000000
 -0.000000  0.162628  0.047380      6.000000
  0.035210  0.182956  0.053302     12.000000
 -0.281679  0.000000  0.000000      6.000000
  0.000000  0.203285  0.059225      3.000000
 -0.000000  0.000000  0.017767      2.000000
  0.035210  0.020328  0.023690      6.000000
  0.070420  0.040657  0.029612      6.000000
  0.105630  0.060985  0.035535      6.000000
  0.140840  0.081314  0.041457      6.000000
 -0.176050 -0.101642 -0.011845      6.000000
 -0.140840 -0.081314 -0.005922      6.000000
 -0.105630 -0.060985  0.000000      6.000000
 -0.070420 -0.040657  0.005922      6.000000
  0.000000  0.040657  0.029612      6.000000
  0.035210  0.060985  0.035535     12.000000
  0.070420  0.081314  0.041457     12.000000
  0.105630  0.101642  0.047380     12.000000
 -0.211259 -0.081314 -0.005922     12.000000
 -0.176050 -0.060985  0.000000     12.000000
 -0.140840 -0.040657  0.005922     12.000000
 -0.105630 -0.020328  0.011845     12.000000
  0.000000  0.081314  0.041457      6.000000
  0.035210  0.101642  0.047380     12.000000
  0.070420  0.121971  0.053302     12.000000
 -0.246469 -0.060985  0.000000     12.000000
 -0.211259 -0.040657  0.005922     12.000000
 -0.176050 -0.020328  0.011845     12.000000
 -0.140840 -0.000000  0.017767     12.000000
  0.000000  0.121971  0.053302      6.000000
  0.035210  0.142299  0.059225     12.000000
 -0.281679 -0.040657  0.005922     12.000000
 -0.246469 -0.020328  0.011845     12.000000
 -0.211259 -0.000000  0.017767     12.000000
 -0.176050  0.020328  0.023690     12.000000
  0.000000  0.162628  0.065147      6.000000
 -0.316889 -0.020328  0.011845     12.000000
 -0.281679 -0.000000  0.017767     12.000000
 -0.246469  0.020328  0.023690     12.000000
 -0.211259  0.040657  0.029612      6.000000
  0.000000 -0.203285 -0.041457      6.000000
  0.035210 -0.182956 -0.035535     12.000000
  0.070420 -0.162628 -0.029612     12.000000
  0.000000 -0.162628 -0.029612      6.000000
  0.035210 -0.142299 -0.023690     12.000000
  0.000000 -0.121971 -0.017767      6.000000
  0.000000  0.000000  0.035535      2.000000
  0.035210  0.020328  0.041457      6.000000
  0.070420  0.040657  0.047380      6.000000
  0.105630  0.060985  0.053302      6.000000
 -0.211259 -0.121971  0.000000      6.000000
 -0.176050 -0.101642  0.005922      6.000000
 -0.140840 -0.081314  0.011845      6.000000
  0.000000  0.040657  0.047380      6.000000
  0.035210  0.060985  0.053302     12.000000
  0.070420  0.081314  0.059225     12.000000
 -0.246469 -0.101642  0.005922     12.000000
 -0.211259 -0.081314  0.011845     12.000000
 -0.176050 -0.060985  0.017767     12.000000
  0.000000  0.081314  0.059225      6.000000
  0.035210  0.101642  0.065147     12.000000
 -0.281679 -0.081314  0.011845     12.000000
 -0.246469 -0.060985  0.017767     12.000000
 -0.211259 -0.040657  0.023690     12.000000
  0.000000  0.121971  0.071070      6.000000
 -0.316889 -0.060985  0.017767     12.000000
 -0.281679 -0.040657  0.023690     12.000000
 -0.246469 -0.020328  0.029612      6.000000
  0.000000 -0.243941 -0.035535      6.000000
  0.035210 -0.223613 -0.029612     12.000000
  0.000000 -0.203285 -0.023690      6.000000
  0.000000  0.000000  0.053302      2.000000
  0.035210  0.020328  0.059225      6.000000
  0.070420  0.040657  0.065147      6.000000
 -0.246469 -0.142299  0.011845      6.000000
 -0.211259 -0.121971  0.017767      6.000000
 -0.000000  0.040657  0.065147      6.000000
  0.035210  0.060985  0.071070     12.000000
 -0.281679 -0.121971  0.017767     12.000000
 -0.246469 -0.101642  0.023690     12.000000
  0.000000  0.081314  0.076992      6.000000
 -0.316889 -0.101642  0.023690     12.000000
 -0.281679 -0.081314  0.029612      6.000000
  0.000000 -0.284598 -0.029612      6.000000
  0.000000  0.000000  0.071070      2.000000
  0.035210  0.020328  0.076992      6.000000
 -0.281679 -0.162628  0.023690      6.000000
  0.000000  0.040657  0.082915      6.000000
 -0.316889 -0.142299  0.029612      6.000000
 -0.000000 -0.000000  0.088837      1.000000
 
 
 Subroutine IBZKPT_HF returns following result:
 ==============================================
 
 Found   1000 k-points in 1st BZ
 the following   1000 k-points will be used (e.g. in the exchange kernel)
 Following reciprocal coordinates:   # in IRBZ
  0.000000  0.000000  0.000000    0.00100000   1 t-inv F
  0.100000  0.000000  0.000000    0.00100000   2 t-inv F
  0.200000  0.000000  0.000000    0.00100000   3 t-inv F
  0.300000  0.000000  0.000000    0.00100000   4 t-inv F
  0.400000  0.000000  0.000000    0.00100000   5 t-inv F
  0.500000  0.000000  0.000000    0.00100000   6 t-inv F
  0.100000  0.100000  0.000000    0.00100000   7 t-inv F
  0.200000  0.100000  0.000000    0.00100000   8 t-inv F
  0.300000  0.100000  0.000000    0.00100000   9 t-inv F
  0.400000  0.100000  0.000000    0.00100000  10 t-inv F
  0.500000  0.100000  0.000000    0.00100000  11 t-inv F
 -0.400000  0.100000 -0.000000    0.00100000  12 t-inv F
 -0.300000  0.100000 -0.000000    0.00100000  13 t-inv F
 -0.200000  0.100000 -0.000000    0.00100000  14 t-inv F
 -0.100000  0.100000  0.000000    0.00100000  15 t-inv F
  0.200000  0.200000  0.000000    0.00100000  16 t-inv F
  0.300000  0.200000  0.000000    0.00100000  17 t-inv F
  0.400000  0.200000  0.000000    0.00100000  18 t-inv F
  0.500000  0.200000 -0.000000    0.00100000  19 t-inv F
 -0.400000  0.200000 -0.000000    0.00100000  20 t-inv F
 -0.300000  0.200000 -0.000000    0.00100000  21 t-inv F
 -0.200000  0.200000  0.000000    0.00100000  22 t-inv F
  0.300000  0.300000  0.000000    0.00100000  23 t-inv F
  0.400000  0.300000  0.000000    0.00100000  24 t-inv F
  0.500000  0.300000  0.000000    0.00100000  25 t-inv F
 -0.400000  0.300000  0.000000    0.00100000  26 t-inv F
 -0.300000  0.300000  0.000000    0.00100000  27 t-inv F
  0.400000  0.400000  0.000000    0.00100000  28 t-inv F
  0.500000  0.400000 -0.000000    0.00100000  29 t-inv F
 -0.400000  0.400000  0.000000    0.00100000  30 t-inv F
  0.500000  0.500000  0.000000    0.00100000  31 t-inv F
  0.100000  0.100000  0.100000    0.00100000  32 t-inv F
  0.200000  0.100000  0.100000    0.00100000  33 t-inv F
  0.300000  0.100000  0.100000    0.00100000  34 t-inv F
  0.400000  0.100000  0.100000    0.00100000  35 t-inv F
  0.500000  0.100000  0.100000    0.00100000  36 t-inv F
 -0.400000  0.100000  0.100000    0.00100000  37 t-inv F
 -0.300000  0.100000  0.100000    0.00100000  38 t-inv F
 -0.200000  0.100000  0.100000    0.00100000  39 t-inv F
 -0.100000  0.100000  0.100000    0.00100000  40 t-inv F
  0.200000  0.200000  0.100000    0.00100000  41 t-inv F
  0.300000  0.200000  0.100000    0.00100000  42 t-inv F
  0.400000  0.200000  0.100000    0.00100000  43 t-inv F
  0.500000  0.200000  0.100000    0.00100000  44 t-inv F
 -0.400000  0.200000  0.100000    0.00100000  45 t-inv F
 -0.300000  0.200000  0.100000    0.00100000  46 t-inv F
 -0.200000  0.200000  0.100000    0.00100000  47 t-inv F
 -0.100000  0.200000  0.100000    0.00100000  48 t-inv F
  0.300000  0.300000  0.100000    0.00100000  49 t-inv F
  0.400000  0.300000  0.100000    0.00100000  50 t-inv F
  0.500000  0.300000  0.100000    0.00100000  51 t-inv F
 -0.400000  0.300000  0.100000    0.00100000  52 t-inv F
 -0.300000  0.300000  0.100000    0.00100000  53 t-inv F
 -0.200000  0.300000  0.100000    0.00100000  54 t-inv F
 -0.100000  0.300000  0.100000    0.00100000  55 t-inv F
  0.400000  0.400000  0.100000    0.00100000  56 t-inv F
  0.500000  0.400000  0.100000    0.00100000  57 t-inv F
 -0.400000  0.400000  0.100000    0.00100000  58 t-inv F
 -0.300000  0.400000  0.100000    0.00100000  59 t-inv F
 -0.200000  0.400000  0.100000    0.00100000  60 t-inv F
 -0.100000  0.400000  0.100000    0.00100000  61 t-inv F
  0.500000  0.500000  0.100000    0.00100000  62 t-inv F
 -0.400000  0.500000  0.100000    0.00100000  63 t-inv F
 -0.300000  0.500000  0.100000    0.00100000  64 t-inv F
 -0.200000  0.500000  0.100000    0.00100000  65 t-inv F
 -0.100000  0.500000  0.100000    0.00100000  66 t-inv F
 -0.400000 -0.400000  0.100000    0.00100000  67 t-inv F
 -0.300000 -0.400000  0.100000    0.00100000  68 t-inv F
 -0.200000 -0.400000  0.100000    0.00100000  69 t-inv F
 -0.300000 -0.300000  0.100000    0.00100000  70 t-inv F
 -0.200000 -0.300000  0.100000    0.00100000  71 t-inv F
 -0.200000 -0.200000  0.100000    0.00100000  72 t-inv F
  0.200000  0.200000  0.200000    0.00100000  73 t-inv F
  0.300000  0.200000  0.200000    0.00100000  74 t-inv F
  0.400000  0.200000  0.200000    0.00100000  75 t-inv F
  0.500000  0.200000  0.200000    0.00100000  76 t-inv F
 -0.400000  0.200000  0.200000    0.00100000  77 t-inv F
 -0.300000  0.200000  0.200000    0.00100000  78 t-inv F
 -0.200000  0.200000  0.200000    0.00100000  79 t-inv F
  0.300000  0.300000  0.200000    0.00100000  80 t-inv F
  0.400000  0.300000  0.200000    0.00100000  81 t-inv F
  0.500000  0.300000  0.200000    0.00100000  82 t-inv F
 -0.400000  0.300000  0.200000    0.00100000  83 t-inv F
 -0.300000  0.300000  0.200000    0.00100000  84 t-inv F
 -0.200000  0.300000  0.200000    0.00100000  85 t-inv F
  0.400000  0.400000  0.200000    0.00100000  86 t-inv F
  0.500000  0.400000  0.200000    0.00100000  87 t-inv F
 -0.400000  0.400000  0.200000    0.00100000  88 t-inv F
 -0.300000  0.400000  0.200000    0.00100000  89 t-inv F
 -0.200000  0.400000  0.200000    0.00100000  90 t-inv F
  0.500000  0.500000  0.200000    0.00100000  91 t-inv F
 -0.400000  0.500000  0.200000    0.00100000  92 t-inv F
 -0.300000  0.500000  0.200000    0.00100000  93 t-inv F
 -0.200000  0.500000  0.200000    0.00100000  94 t-inv F
 -0.400000 -0.400000  0.200000    0.00100000  95 t-inv F
 -0.300000 -0.400000  0.200000    0.00100000  96 t-inv F
 -0.300000 -0.300000  0.200000    0.00100000  97 t-inv F
  0.300000  0.300000  0.300000    0.00100000  98 t-inv F
  0.400000  0.300000  0.300000    0.00100000  99 t-inv F
  0.500000  0.300000  0.300000    0.00100000 100 t-inv F
 -0.400000  0.300000  0.300000    0.00100000 101 t-inv F
 -0.300000  0.300000  0.300000    0.00100000 102 t-inv F
  0.400000  0.400000  0.300000    0.00100000 103 t-inv F
  0.500000  0.400000  0.300000    0.00100000 104 t-inv F
 -0.400000  0.400000  0.300000    0.00100000 105 t-inv F
 -0.300000  0.400000  0.300000    0.00100000 106 t-inv F
  0.500000  0.500000  0.300000    0.00100000 107 t-inv F
 -0.400000  0.500000  0.300000    0.00100000 108 t-inv F
 -0.300000  0.500000  0.300000    0.00100000 109 t-inv F
 -0.400000 -0.400000  0.300000    0.00100000 110 t-inv F
  0.400000  0.400000  0.400000    0.00100000 111 t-inv F
  0.500000  0.400000  0.400000    0.00100000 112 t-inv F
 -0.400000  0.400000  0.400000    0.00100000 113 t-inv F
  0.500000  0.500000  0.400000    0.00100000 114 t-inv F
 -0.400000  0.500000  0.400000    0.00100000 115 t-inv F
  0.500000  0.500000  0.500000    0.00100000 116 t-inv F
 -0.100000 -0.000000 -0.000000    0.00100000   2 t-inv F
  0.000000  0.100000  0.000000    0.00100000   2 t-inv F
 -0.000000 -0.100000 -0.000000    0.00100000   2 t-inv F
  0.000000  0.000000  0.100000    0.00100000   2 t-inv F
 -0.000000 -0.000000 -0.100000    0.00100000   2 t-inv F
 -0.200000 -0.000000 -0.000000    0.00100000   3 t-inv F
  0.000000  0.200000  0.000000    0.00100000   3 t-inv F
 -0.000000 -0.200000 -0.000000    0.00100000   3 t-inv F
  0.000000  0.000000  0.200000    0.00100000   3 t-inv F
 -0.000000 -0.000000 -0.200000    0.00100000   3 t-inv F
 -0.300000 -0.000000 -0.000000    0.00100000   4 t-inv F
  0.000000  0.300000  0.000000    0.00100000   4 t-inv F
 -0.000000 -0.300000 -0.000000    0.00100000   4 t-inv F
  0.000000  0.000000  0.300000    0.00100000   4 t-inv F
 -0.000000 -0.000000 -0.300000    0.00100000   4 t-inv F
 -0.400000 -0.000000 -0.000000    0.00100000   5 t-inv F
  0.000000  0.400000  0.000000    0.00100000   5 t-inv F
 -0.000000 -0.400000 -0.000000    0.00100000   5 t-inv F
  0.000000  0.000000  0.400000    0.00100000   5 t-inv F
 -0.000000 -0.000000 -0.400000    0.00100000   5 t-inv F
  0.000000  0.500000  0.000000    0.00100000   6 t-inv F
  0.000000  0.000000  0.500000    0.00100000   6 t-inv F
 -0.100000 -0.100000 -0.000000    0.00100000   7 t-inv F
 -0.100000 -0.000000 -0.100000    0.00100000   7 t-inv F
  0.100000  0.000000  0.100000    0.00100000   7 t-inv F
  0.000000  0.100000  0.100000    0.00100000   7 t-inv F
 -0.000000 -0.100000 -0.100000    0.00100000   7 t-inv F
 -0.200000 -0.100000 -0.000000    0.00100000   8 t-inv F
 -0.200000 -0.000000 -0.100000    0.00100000   8 t-inv F
  0.200000  0.000000  0.100000    0.00100000   8 t-inv F
  0.000000  0.200000  0.100000    0.00100000   8 t-inv F
 -0.000000 -0.200000 -0.100000    0.00100000   8 t-inv F
 -0.100000 -0.200000 -0.000000    0.00100000   8 t-inv F
  0.100000  0.200000  0.000000    0.00100000   8 t-inv F
  0.100000  0.000000  0.200000    0.00100000   8 t-inv F
 -0.100000 -0.000000 -0.200000    0.00100000   8 t-inv F
 -0.000000 -0.100000 -0.200000    0.00100000   8 t-inv F
  0.000000  0.100000  0.200000    0.00100000   8 t-inv F
 -0.300000 -0.100000 -0.000000    0.00100000   9 t-inv F
 -0.300000 -0.000000 -0.100000    0.00100000   9 t-inv F
  0.300000  0.000000  0.100000    0.00100000   9 t-inv F
  0.000000  0.300000  0.100000    0.00100000   9 t-inv F
 -0.000000 -0.300000 -0.100000    0.00100000   9 t-inv F
 -0.100000 -0.300000 -0.000000    0.00100000   9 t-inv F
  0.100000  0.300000  0.000000    0.00100000   9 t-inv F
  0.100000  0.000000  0.300000    0.00100000   9 t-inv F
 -0.100000 -0.000000 -0.300000    0.00100000   9 t-inv F
 -0.000000 -0.100000 -0.300000    0.00100000   9 t-inv F
  0.000000  0.100000  0.300000    0.00100000   9 t-inv F
 -0.400000 -0.100000 -0.000000    0.00100000  10 t-inv F
 -0.400000 -0.000000 -0.100000    0.00100000  10 t-inv F
  0.400000  0.000000  0.100000    0.00100000  10 t-inv F
  0.000000  0.400000  0.100000    0.00100000  10 t-inv F
 -0.000000 -0.400000 -0.100000    0.00100000  10 t-inv F
 -0.100000 -0.400000 -0.000000    0.00100000  10 t-inv F
  0.100000  0.400000  0.000000    0.00100000  10 t-inv F
  0.100000  0.000000  0.400000    0.00100000  10 t-inv F
 -0.100000 -0.000000 -0.400000    0.00100000  10 t-inv F
 -0.000000 -0.100000 -0.400000    0.00100000  10 t-inv F
  0.000000  0.100000  0.400000    0.00100000  10 t-inv F
 -0.500000 -0.100000 -0.000000    0.00100000  11 t-inv F
 -0.500000 -0.000000 -0.100000    0.00100000  11 t-inv F
  0.500000  0.000000  0.100000    0.00100000  11 t-inv F
  0.000000  0.500000  0.100000    0.00100000  11 t-inv F
 -0.000000 -0.500000 -0.100000    0.00100000  11 t-inv F
 -0.100000 -0.500000 -0.000000    0.00100000  11 t-inv F
  0.100000  0.500000  0.000000    0.00100000  11 t-inv F
  0.100000  0.000000  0.500000    0.00100000  11 t-inv F
 -0.100000 -0.000000 -0.500000    0.00100000  11 t-inv F
 -0.000000 -0.100000 -0.500000    0.00100000  11 t-inv F
  0.000000  0.100000  0.500000    0.00100000  11 t-inv F
  0.400000 -0.100000  0.000000    0.00100000  12 t-inv F
  0.400000  0.000000 -0.100000    0.00100000  12 t-inv F
 -0.400000 -0.000000  0.100000    0.00100000  12 t-inv F
 -0.000000 -0.400000  0.100000    0.00100000  12 t-inv F
  0.000000  0.400000 -0.100000    0.00100000  12 t-inv F
 -0.100000  0.400000  0.000000    0.00100000  12 t-inv F
  0.100000 -0.400000 -0.000000    0.00100000  12 t-inv F
  0.100000 -0.000000 -0.400000    0.00100000  12 t-inv F
 -0.100000  0.000000  0.400000    0.00100000  12 t-inv F
  0.000000 -0.100000  0.400000    0.00100000  12 t-inv F
 -0.000000  0.100000 -0.400000    0.00100000  12 t-inv F
  0.300000 -0.100000  0.000000    0.00100000  13 t-inv F
  0.300000  0.000000 -0.100000    0.00100000  13 t-inv F
 -0.300000 -0.000000  0.100000    0.00100000  13 t-inv F
 -0.000000 -0.300000  0.100000    0.00100000  13 t-inv F
  0.000000  0.300000 -0.100000    0.00100000  13 t-inv F
 -0.100000  0.300000  0.000000    0.00100000  13 t-inv F
  0.100000 -0.300000 -0.000000    0.00100000  13 t-inv F
  0.100000 -0.000000 -0.300000    0.00100000  13 t-inv F
 -0.100000  0.000000  0.300000    0.00100000  13 t-inv F
  0.000000 -0.100000  0.300000    0.00100000  13 t-inv F
 -0.000000  0.100000 -0.300000    0.00100000  13 t-inv F
  0.200000 -0.100000  0.000000    0.00100000  14 t-inv F
  0.200000  0.000000 -0.100000    0.00100000  14 t-inv F
 -0.200000 -0.000000  0.100000    0.00100000  14 t-inv F
 -0.000000 -0.200000  0.100000    0.00100000  14 t-inv F
  0.000000  0.200000 -0.100000    0.00100000  14 t-inv F
 -0.100000  0.200000  0.000000    0.00100000  14 t-inv F
  0.100000 -0.200000 -0.000000    0.00100000  14 t-inv F
  0.100000 -0.000000 -0.200000    0.00100000  14 t-inv F
 -0.100000  0.000000  0.200000    0.00100000  14 t-inv F
  0.000000 -0.100000  0.200000    0.00100000  14 t-inv F
 -0.000000  0.100000 -0.200000    0.00100000  14 t-inv F
  0.100000 -0.100000 -0.000000    0.00100000  15 t-inv F
  0.100000 -0.000000 -0.100000    0.00100000  15 t-inv F
 -0.100000  0.000000  0.100000    0.00100000  15 t-inv F
  0.000000 -0.100000  0.100000    0.00100000  15 t-inv F
 -0.000000  0.100000 -0.100000    0.00100000  15 t-inv F
 -0.200000 -0.200000 -0.000000    0.00100000  16 t-inv F
 -0.200000 -0.000000 -0.200000    0.00100000  16 t-inv F
  0.200000  0.000000  0.200000    0.00100000  16 t-inv F
  0.000000  0.200000  0.200000    0.00100000  16 t-inv F
 -0.000000 -0.200000 -0.200000    0.00100000  16 t-inv F
 -0.300000 -0.200000 -0.000000    0.00100000  17 t-inv F
 -0.300000 -0.000000 -0.200000    0.00100000  17 t-inv F
  0.300000  0.000000  0.200000    0.00100000  17 t-inv F
  0.000000  0.300000  0.200000    0.00100000  17 t-inv F
 -0.000000 -0.300000 -0.200000    0.00100000  17 t-inv F
 -0.200000 -0.300000 -0.000000    0.00100000  17 t-inv F
  0.200000  0.300000  0.000000    0.00100000  17 t-inv F
  0.200000  0.000000  0.300000    0.00100000  17 t-inv F
 -0.200000 -0.000000 -0.300000    0.00100000  17 t-inv F
 -0.000000 -0.200000 -0.300000    0.00100000  17 t-inv F
  0.000000  0.200000  0.300000    0.00100000  17 t-inv F
 -0.400000 -0.200000 -0.000000    0.00100000  18 t-inv F
 -0.400000 -0.000000 -0.200000    0.00100000  18 t-inv F
  0.400000  0.000000  0.200000    0.00100000  18 t-inv F
  0.000000  0.400000  0.200000    0.00100000  18 t-inv F
 -0.000000 -0.400000 -0.200000    0.00100000  18 t-inv F
 -0.200000 -0.400000 -0.000000    0.00100000  18 t-inv F
  0.200000  0.400000  0.000000    0.00100000  18 t-inv F
  0.200000  0.000000  0.400000    0.00100000  18 t-inv F
 -0.200000 -0.000000 -0.400000    0.00100000  18 t-inv F
 -0.000000 -0.200000 -0.400000    0.00100000  18 t-inv F
  0.000000  0.200000  0.400000    0.00100000  18 t-inv F
 -0.500000 -0.200000  0.000000    0.00100000  19 t-inv F
 -0.500000  0.000000 -0.200000    0.00100000  19 t-inv F
  0.500000 -0.000000  0.200000    0.00100000  19 t-inv F
 -0.000000  0.500000  0.200000    0.00100000  19 t-inv F
  0.000000 -0.500000 -0.200000    0.00100000  19 t-inv F
 -0.200000 -0.500000  0.000000    0.00100000  19 t-inv F
  0.200000  0.500000 -0.000000    0.00100000  19 t-inv F
  0.200000 -0.000000  0.500000    0.00100000  19 t-inv F
 -0.200000  0.000000 -0.500000    0.00100000  19 t-inv F
  0.000000 -0.200000 -0.500000    0.00100000  19 t-inv F
 -0.000000  0.200000  0.500000    0.00100000  19 t-inv F
  0.400000 -0.200000  0.000000    0.00100000  20 t-inv F
  0.400000  0.000000 -0.200000    0.00100000  20 t-inv F
 -0.400000 -0.000000  0.200000    0.00100000  20 t-inv F
 -0.000000 -0.400000  0.200000    0.00100000  20 t-inv F
  0.000000  0.400000 -0.200000    0.00100000  20 t-inv F
 -0.200000  0.400000  0.000000    0.00100000  20 t-inv F
  0.200000 -0.400000 -0.000000    0.00100000  20 t-inv F
  0.200000 -0.000000 -0.400000    0.00100000  20 t-inv F
 -0.200000  0.000000  0.400000    0.00100000  20 t-inv F
  0.000000 -0.200000  0.400000    0.00100000  20 t-inv F
 -0.000000  0.200000 -0.400000    0.00100000  20 t-inv F
  0.300000 -0.200000  0.000000    0.00100000  21 t-inv F
  0.300000  0.000000 -0.200000    0.00100000  21 t-inv F
 -0.300000 -0.000000  0.200000    0.00100000  21 t-inv F
 -0.000000 -0.300000  0.200000    0.00100000  21 t-inv F
  0.000000  0.300000 -0.200000    0.00100000  21 t-inv F
 -0.200000  0.300000  0.000000    0.00100000  21 t-inv F
  0.200000 -0.300000 -0.000000    0.00100000  21 t-inv F
  0.200000 -0.000000 -0.300000    0.00100000  21 t-inv F
 -0.200000  0.000000  0.300000    0.00100000  21 t-inv F
  0.000000 -0.200000  0.300000    0.00100000  21 t-inv F
 -0.000000  0.200000 -0.300000    0.00100000  21 t-inv F
  0.200000 -0.200000 -0.000000    0.00100000  22 t-inv F
  0.200000 -0.000000 -0.200000    0.00100000  22 t-inv F
 -0.200000  0.000000  0.200000    0.00100000  22 t-inv F
  0.000000 -0.200000  0.200000    0.00100000  22 t-inv F
 -0.000000  0.200000 -0.200000    0.00100000  22 t-inv F
 -0.300000 -0.300000 -0.000000    0.00100000  23 t-inv F
 -0.300000 -0.000000 -0.300000    0.00100000  23 t-inv F
  0.300000  0.000000  0.300000    0.00100000  23 t-inv F
  0.000000  0.300000  0.300000    0.00100000  23 t-inv F
 -0.000000 -0.300000 -0.300000    0.00100000  23 t-inv F
 -0.400000 -0.300000 -0.000000    0.00100000  24 t-inv F
 -0.400000 -0.000000 -0.300000    0.00100000  24 t-inv F
  0.400000  0.000000  0.300000    0.00100000  24 t-inv F
  0.000000  0.400000  0.300000    0.00100000  24 t-inv F
 -0.000000 -0.400000 -0.300000    0.00100000  24 t-inv F
 -0.300000 -0.400000 -0.000000    0.00100000  24 t-inv F
  0.300000  0.400000  0.000000    0.00100000  24 t-inv F
  0.300000  0.000000  0.400000    0.00100000  24 t-inv F
 -0.300000 -0.000000 -0.400000    0.00100000  24 t-inv F
 -0.000000 -0.300000 -0.400000    0.00100000  24 t-inv F
  0.000000  0.300000  0.400000    0.00100000  24 t-inv F
 -0.500000 -0.300000 -0.000000    0.00100000  25 t-inv F
 -0.500000 -0.000000 -0.300000    0.00100000  25 t-inv F
  0.500000  0.000000  0.300000    0.00100000  25 t-inv F
  0.000000  0.500000  0.300000    0.00100000  25 t-inv F
 -0.000000 -0.500000 -0.300000    0.00100000  25 t-inv F
 -0.300000 -0.500000 -0.000000    0.00100000  25 t-inv F
  0.300000  0.500000  0.000000    0.00100000  25 t-inv F
  0.300000  0.000000  0.500000    0.00100000  25 t-inv F
 -0.300000 -0.000000 -0.500000    0.00100000  25 t-inv F
 -0.000000 -0.300000 -0.500000    0.00100000  25 t-inv F
  0.000000  0.300000  0.500000    0.00100000  25 t-inv F
  0.400000 -0.300000 -0.000000    0.00100000  26 t-inv F
  0.400000 -0.000000 -0.300000    0.00100000  26 t-inv F
 -0.400000  0.000000  0.300000    0.00100000  26 t-inv F
  0.000000 -0.400000  0.300000    0.00100000  26 t-inv F
 -0.000000  0.400000 -0.300000    0.00100000  26 t-inv F
 -0.300000  0.400000 -0.000000    0.00100000  26 t-inv F
  0.300000 -0.400000  0.000000    0.00100000  26 t-inv F
  0.300000  0.000000 -0.400000    0.00100000  26 t-inv F
 -0.300000 -0.000000  0.400000    0.00100000  26 t-inv F
 -0.000000 -0.300000  0.400000    0.00100000  26 t-inv F
  0.000000  0.300000 -0.400000    0.00100000  26 t-inv F
  0.300000 -0.300000 -0.000000    0.00100000  27 t-inv F
  0.300000 -0.000000 -0.300000    0.00100000  27 t-inv F
 -0.300000  0.000000  0.300000    0.00100000  27 t-inv F
  0.000000 -0.300000  0.300000    0.00100000  27 t-inv F
 -0.000000  0.300000 -0.300000    0.00100000  27 t-inv F
 -0.400000 -0.400000 -0.000000    0.00100000  28 t-inv F
 -0.400000 -0.000000 -0.400000    0.00100000  28 t-inv F
  0.400000  0.000000  0.400000    0.00100000  28 t-inv F
  0.000000  0.400000  0.400000    0.00100000  28 t-inv F
 -0.000000 -0.400000 -0.400000    0.00100000  28 t-inv F
 -0.500000 -0.400000  0.000000    0.00100000  29 t-inv F
 -0.500000  0.000000 -0.400000    0.00100000  29 t-inv F
  0.500000 -0.000000  0.400000    0.00100000  29 t-inv F
 -0.000000  0.500000  0.400000    0.00100000  29 t-inv F
  0.000000 -0.500000 -0.400000    0.00100000  29 t-inv F
 -0.400000 -0.500000  0.000000    0.00100000  29 t-inv F
  0.400000  0.500000 -0.000000    0.00100000  29 t-inv F
  0.400000 -0.000000  0.500000    0.00100000  29 t-inv F
 -0.400000  0.000000 -0.500000    0.00100000  29 t-inv F
  0.000000 -0.400000 -0.500000    0.00100000  29 t-inv F
 -0.000000  0.400000  0.500000    0.00100000  29 t-inv F
  0.400000 -0.400000 -0.000000    0.00100000  30 t-inv F
  0.400000 -0.000000 -0.400000    0.00100000  30 t-inv F
 -0.400000  0.000000  0.400000    0.00100000  30 t-inv F
  0.000000 -0.400000  0.400000    0.00100000  30 t-inv F
 -0.000000  0.400000 -0.400000    0.00100000  30 t-inv F
 -0.500000 -0.000000 -0.500000    0.00100000  31 t-inv F
  0.000000  0.500000  0.500000    0.00100000  31 t-inv F
 -0.100000 -0.100000 -0.100000    0.00100000  32 t-inv F
 -0.200000 -0.100000 -0.100000    0.00100000  33 t-inv F
  0.100000  0.200000  0.100000    0.00100000  33 t-inv F
 -0.100000 -0.200000 -0.100000    0.00100000  33 t-inv F
  0.100000  0.100000  0.200000    0.00100000  33 t-inv F
 -0.100000 -0.100000 -0.200000    0.00100000  33 t-inv F
 -0.300000 -0.100000 -0.100000    0.00100000  34 t-inv F
  0.100000  0.300000  0.100000    0.00100000  34 t-inv F
 -0.100000 -0.300000 -0.100000    0.00100000  34 t-inv F
  0.100000  0.100000  0.300000    0.00100000  34 t-inv F
 -0.100000 -0.100000 -0.300000    0.00100000  34 t-inv F
 -0.400000 -0.100000 -0.100000    0.00100000  35 t-inv F
  0.100000  0.400000  0.100000    0.00100000  35 t-inv F
 -0.100000 -0.400000 -0.100000    0.00100000  35 t-inv F
  0.100000  0.100000  0.400000    0.00100000  35 t-inv F
 -0.100000 -0.100000 -0.400000    0.00100000  35 t-inv F
 -0.500000 -0.100000 -0.100000    0.00100000  36 t-inv F
  0.100000  0.500000  0.100000    0.00100000  36 t-inv F
 -0.100000 -0.500000 -0.100000    0.00100000  36 t-inv F
  0.100000  0.100000  0.500000    0.00100000  36 t-inv F
 -0.100000 -0.100000 -0.500000    0.00100000  36 t-inv F
  0.400000 -0.100000 -0.100000    0.00100000  37 t-inv F
  0.100000 -0.400000  0.100000    0.00100000  37 t-inv F
 -0.100000  0.400000 -0.100000    0.00100000  37 t-inv F
  0.100000  0.100000 -0.400000    0.00100000  37 t-inv F
 -0.100000 -0.100000  0.400000    0.00100000  37 t-inv F
  0.300000 -0.100000 -0.100000    0.00100000  38 t-inv F
  0.100000 -0.300000  0.100000    0.00100000  38 t-inv F
 -0.100000  0.300000 -0.100000    0.00100000  38 t-inv F
  0.100000  0.100000 -0.300000    0.00100000  38 t-inv F
 -0.100000 -0.100000  0.300000    0.00100000  38 t-inv F
  0.200000 -0.100000 -0.100000    0.00100000  39 t-inv F
  0.100000 -0.200000  0.100000    0.00100000  39 t-inv F
 -0.100000  0.200000 -0.100000    0.00100000  39 t-inv F
  0.100000  0.100000 -0.200000    0.00100000  39 t-inv F
 -0.100000 -0.100000  0.200000    0.00100000  39 t-inv F
  0.100000 -0.100000 -0.100000    0.00100000  40 t-inv F
  0.100000 -0.100000  0.100000    0.00100000  40 t-inv F
 -0.100000  0.100000 -0.100000    0.00100000  40 t-inv F
  0.100000  0.100000 -0.100000    0.00100000  40 t-inv F
 -0.100000 -0.100000  0.100000    0.00100000  40 t-inv F
 -0.200000 -0.200000 -0.100000    0.00100000  41 t-inv F
 -0.200000 -0.100000 -0.200000    0.00100000  41 t-inv F
  0.200000  0.100000  0.200000    0.00100000  41 t-inv F
  0.100000  0.200000  0.200000    0.00100000  41 t-inv F
 -0.100000 -0.200000 -0.200000    0.00100000  41 t-inv F
 -0.300000 -0.200000 -0.100000    0.00100000  42 t-inv F
 -0.300000 -0.100000 -0.200000    0.00100000  42 t-inv F
  0.300000  0.100000  0.200000    0.00100000  42 t-inv F
  0.100000  0.300000  0.200000    0.00100000  42 t-inv F
 -0.100000 -0.300000 -0.200000    0.00100000  42 t-inv F
 -0.200000 -0.300000 -0.100000    0.00100000  42 t-inv F
  0.200000  0.300000  0.100000    0.00100000  42 t-inv F
  0.200000  0.100000  0.300000    0.00100000  42 t-inv F
 -0.200000 -0.100000 -0.300000    0.00100000  42 t-inv F
 -0.100000 -0.200000 -0.300000    0.00100000  42 t-inv F
  0.100000  0.200000  0.300000    0.00100000  42 t-inv F
 -0.400000 -0.200000 -0.100000    0.00100000  43 t-inv F
 -0.400000 -0.100000 -0.200000    0.00100000  43 t-inv F
  0.400000  0.100000  0.200000    0.00100000  43 t-inv F
  0.100000  0.400000  0.200000    0.00100000  43 t-inv F
 -0.100000 -0.400000 -0.200000    0.00100000  43 t-inv F
 -0.200000 -0.400000 -0.100000    0.00100000  43 t-inv F
  0.200000  0.400000  0.100000    0.00100000  43 t-inv F
  0.200000  0.100000  0.400000    0.00100000  43 t-inv F
 -0.200000 -0.100000 -0.400000    0.00100000  43 t-inv F
 -0.100000 -0.200000 -0.400000    0.00100000  43 t-inv F
  0.100000  0.200000  0.400000    0.00100000  43 t-inv F
 -0.500000 -0.200000 -0.100000    0.00100000  44 t-inv F
 -0.500000 -0.100000 -0.200000    0.00100000  44 t-inv F
  0.500000  0.100000  0.200000    0.00100000  44 t-inv F
  0.100000  0.500000  0.200000    0.00100000  44 t-inv F
 -0.100000 -0.500000 -0.200000    0.00100000  44 t-inv F
 -0.200000 -0.500000 -0.100000    0.00100000  44 t-inv F
  0.200000  0.500000  0.100000    0.00100000  44 t-inv F
  0.200000  0.100000  0.500000    0.00100000  44 t-inv F
 -0.200000 -0.100000 -0.500000    0.00100000  44 t-inv F
 -0.100000 -0.200000 -0.500000    0.00100000  44 t-inv F
  0.100000  0.200000  0.500000    0.00100000  44 t-inv F
  0.400000 -0.200000 -0.100000    0.00100000  45 t-inv F
  0.400000 -0.100000 -0.200000    0.00100000  45 t-inv F
 -0.400000  0.100000  0.200000    0.00100000  45 t-inv F
  0.100000 -0.400000  0.200000    0.00100000  45 t-inv F
 -0.100000  0.400000 -0.200000    0.00100000  45 t-inv F
 -0.200000  0.400000 -0.100000    0.00100000  45 t-inv F
  0.200000 -0.400000  0.100000    0.00100000  45 t-inv F
  0.200000  0.100000 -0.400000    0.00100000  45 t-inv F
 -0.200000 -0.100000  0.400000    0.00100000  45 t-inv F
 -0.100000 -0.200000  0.400000    0.00100000  45 t-inv F
  0.100000  0.200000 -0.400000    0.00100000  45 t-inv F
  0.300000 -0.200000 -0.100000    0.00100000  46 t-inv F
  0.300000 -0.100000 -0.200000    0.00100000  46 t-inv F
 -0.300000  0.100000  0.200000    0.00100000  46 t-inv F
  0.100000 -0.300000  0.200000    0.00100000  46 t-inv F
 -0.100000  0.300000 -0.200000    0.00100000  46 t-inv F
 -0.200000  0.300000 -0.100000    0.00100000  46 t-inv F
  0.200000 -0.300000  0.100000    0.00100000  46 t-inv F
  0.200000  0.100000 -0.300000    0.00100000  46 t-inv F
 -0.200000 -0.100000  0.300000    0.00100000  46 t-inv F
 -0.100000 -0.200000  0.300000    0.00100000  46 t-inv F
  0.100000  0.200000 -0.300000    0.00100000  46 t-inv F
  0.200000 -0.200000 -0.100000    0.00100000  47 t-inv F
  0.200000 -0.100000 -0.200000    0.00100000  47 t-inv F
 -0.200000  0.100000  0.200000    0.00100000  47 t-inv F
  0.100000 -0.200000  0.200000    0.00100000  47 t-inv F
 -0.100000  0.200000 -0.200000    0.00100000  47 t-inv F
 -0.200000  0.200000 -0.100000    0.00100000  47 t-inv F
  0.200000 -0.200000  0.100000    0.00100000  47 t-inv F
  0.200000  0.100000 -0.200000    0.00100000  47 t-inv F
 -0.200000 -0.100000  0.200000    0.00100000  47 t-inv F
 -0.100000 -0.200000  0.200000    0.00100000  47 t-inv F
  0.100000  0.200000 -0.200000    0.00100000  47 t-inv F
  0.100000 -0.200000 -0.100000    0.00100000  48 t-inv F
  0.100000 -0.100000 -0.200000    0.00100000  48 t-inv F
 -0.100000  0.100000  0.200000    0.00100000  48 t-inv F
  0.100000 -0.100000  0.200000    0.00100000  48 t-inv F
 -0.100000  0.100000 -0.200000    0.00100000  48 t-inv F
 -0.200000  0.100000 -0.100000    0.00100000  48 t-inv F
  0.200000 -0.100000  0.100000    0.00100000  48 t-inv F
  0.200000  0.100000 -0.100000    0.00100000  48 t-inv F
 -0.200000 -0.100000  0.100000    0.00100000  48 t-inv F
 -0.100000 -0.200000  0.100000    0.00100000  48 t-inv F
  0.100000  0.200000 -0.100000    0.00100000  48 t-inv F
 -0.300000 -0.300000 -0.100000    0.00100000  49 t-inv F
 -0.300000 -0.100000 -0.300000    0.00100000  49 t-inv F
  0.300000  0.100000  0.300000    0.00100000  49 t-inv F
  0.100000  0.300000  0.300000    0.00100000  49 t-inv F
 -0.100000 -0.300000 -0.300000    0.00100000  49 t-inv F
 -0.400000 -0.300000 -0.100000    0.00100000  50 t-inv F
 -0.400000 -0.100000 -0.300000    0.00100000  50 t-inv F
  0.400000  0.100000  0.300000    0.00100000  50 t-inv F
  0.100000  0.400000  0.300000    0.00100000  50 t-inv F
 -0.100000 -0.400000 -0.300000    0.00100000  50 t-inv F
 -0.300000 -0.400000 -0.100000    0.00100000  50 t-inv F
  0.300000  0.400000  0.100000    0.00100000  50 t-inv F
  0.300000  0.100000  0.400000    0.00100000  50 t-inv F
 -0.300000 -0.100000 -0.400000    0.00100000  50 t-inv F
 -0.100000 -0.300000 -0.400000    0.00100000  50 t-inv F
  0.100000  0.300000  0.400000    0.00100000  50 t-inv F
 -0.500000 -0.300000 -0.100000    0.00100000  51 t-inv F
 -0.500000 -0.100000 -0.300000    0.00100000  51 t-inv F
  0.500000  0.100000  0.300000    0.00100000  51 t-inv F
  0.100000  0.500000  0.300000    0.00100000  51 t-inv F
 -0.100000 -0.500000 -0.300000    0.00100000  51 t-inv F
 -0.300000 -0.500000 -0.100000    0.00100000  51 t-inv F
  0.300000  0.500000  0.100000    0.00100000  51 t-inv F
  0.300000  0.100000  0.500000    0.00100000  51 t-inv F
 -0.300000 -0.100000 -0.500000    0.00100000  51 t-inv F
 -0.100000 -0.300000 -0.500000    0.00100000  51 t-inv F
  0.100000  0.300000  0.500000    0.00100000  51 t-inv F
  0.400000 -0.300000 -0.100000    0.00100000  52 t-inv F
  0.400000 -0.100000 -0.300000    0.00100000  52 t-inv F
 -0.400000  0.100000  0.300000    0.00100000  52 t-inv F
  0.100000 -0.400000  0.300000    0.00100000  52 t-inv F
 -0.100000  0.400000 -0.300000    0.00100000  52 t-inv F
 -0.300000  0.400000 -0.100000    0.00100000  52 t-inv F
  0.300000 -0.400000  0.100000    0.00100000  52 t-inv F
  0.300000  0.100000 -0.400000    0.00100000  52 t-inv F
 -0.300000 -0.100000  0.400000    0.00100000  52 t-inv F
 -0.100000 -0.300000  0.400000    0.00100000  52 t-inv F
  0.100000  0.300000 -0.400000    0.00100000  52 t-inv F
  0.300000 -0.300000 -0.100000    0.00100000  53 t-inv F
  0.300000 -0.100000 -0.300000    0.00100000  53 t-inv F
 -0.300000  0.100000  0.300000    0.00100000  53 t-inv F
  0.100000 -0.300000  0.300000    0.00100000  53 t-inv F
 -0.100000  0.300000 -0.300000    0.00100000  53 t-inv F
 -0.300000  0.300000 -0.100000    0.00100000  53 t-inv F
  0.300000 -0.300000  0.100000    0.00100000  53 t-inv F
  0.300000  0.100000 -0.300000    0.00100000  53 t-inv F
 -0.300000 -0.100000  0.300000    0.00100000  53 t-inv F
 -0.100000 -0.300000  0.300000    0.00100000  53 t-inv F
  0.100000  0.300000 -0.300000    0.00100000  53 t-inv F
  0.200000 -0.300000 -0.100000    0.00100000  54 t-inv F
  0.200000 -0.100000 -0.300000    0.00100000  54 t-inv F
 -0.200000  0.100000  0.300000    0.00100000  54 t-inv F
  0.100000 -0.200000  0.300000    0.00100000  54 t-inv F
 -0.100000  0.200000 -0.300000    0.00100000  54 t-inv F
 -0.300000  0.200000 -0.100000    0.00100000  54 t-inv F
  0.300000 -0.200000  0.100000    0.00100000  54 t-inv F
  0.300000  0.100000 -0.200000    0.00100000  54 t-inv F
 -0.300000 -0.100000  0.200000    0.00100000  54 t-inv F
 -0.100000 -0.300000  0.200000    0.00100000  54 t-inv F
  0.100000  0.300000 -0.200000    0.00100000  54 t-inv F
  0.100000 -0.300000 -0.100000    0.00100000  55 t-inv F
  0.100000 -0.100000 -0.300000    0.00100000  55 t-inv F
 -0.100000  0.100000  0.300000    0.00100000  55 t-inv F
  0.100000 -0.100000  0.300000    0.00100000  55 t-inv F
 -0.100000  0.100000 -0.300000    0.00100000  55 t-inv F
 -0.300000  0.100000 -0.100000    0.00100000  55 t-inv F
  0.300000 -0.100000  0.100000    0.00100000  55 t-inv F
  0.300000  0.100000 -0.100000    0.00100000  55 t-inv F
 -0.300000 -0.100000  0.100000    0.00100000  55 t-inv F
 -0.100000 -0.300000  0.100000    0.00100000  55 t-inv F
  0.100000  0.300000 -0.100000    0.00100000  55 t-inv F
 -0.400000 -0.400000 -0.100000    0.00100000  56 t-inv F
 -0.400000 -0.100000 -0.400000    0.00100000  56 t-inv F
  0.400000  0.100000  0.400000    0.00100000  56 t-inv F
  0.100000  0.400000  0.400000    0.00100000  56 t-inv F
 -0.100000 -0.400000 -0.400000    0.00100000  56 t-inv F
 -0.500000 -0.400000 -0.100000    0.00100000  57 t-inv F
 -0.500000 -0.100000 -0.400000    0.00100000  57 t-inv F
  0.500000  0.100000  0.400000    0.00100000  57 t-inv F
  0.100000  0.500000  0.400000    0.00100000  57 t-inv F
 -0.100000 -0.500000 -0.400000    0.00100000  57 t-inv F
 -0.400000 -0.500000 -0.100000    0.00100000  57 t-inv F
  0.400000  0.500000  0.100000    0.00100000  57 t-inv F
  0.400000  0.100000  0.500000    0.00100000  57 t-inv F
 -0.400000 -0.100000 -0.500000    0.00100000  57 t-inv F
 -0.100000 -0.400000 -0.500000    0.00100000  57 t-inv F
  0.100000  0.400000  0.500000    0.00100000  57 t-inv F
  0.400000 -0.400000 -0.100000    0.00100000  58 t-inv F
  0.400000 -0.100000 -0.400000    0.00100000  58 t-inv F
 -0.400000  0.100000  0.400000    0.00100000  58 t-inv F
  0.100000 -0.400000  0.400000    0.00100000  58 t-inv F
 -0.100000  0.400000 -0.400000    0.00100000  58 t-inv F
 -0.400000  0.400000 -0.100000    0.00100000  58 t-inv F
  0.400000 -0.400000  0.100000    0.00100000  58 t-inv F
  0.400000  0.100000 -0.400000    0.00100000  58 t-inv F
 -0.400000 -0.100000  0.400000    0.00100000  58 t-inv F
 -0.100000 -0.400000  0.400000    0.00100000  58 t-inv F
  0.100000  0.400000 -0.400000    0.00100000  58 t-inv F
  0.300000 -0.400000 -0.100000    0.00100000  59 t-inv F
  0.300000 -0.100000 -0.400000    0.00100000  59 t-inv F
 -0.300000  0.100000  0.400000    0.00100000  59 t-inv F
  0.100000 -0.300000  0.400000    0.00100000  59 t-inv F
 -0.100000  0.300000 -0.400000    0.00100000  59 t-inv F
 -0.400000  0.300000 -0.100000    0.00100000  59 t-inv F
  0.400000 -0.300000  0.100000    0.00100000  59 t-inv F
  0.400000  0.100000 -0.300000    0.00100000  59 t-inv F
 -0.400000 -0.100000  0.300000    0.00100000  59 t-inv F
 -0.100000 -0.400000  0.300000    0.00100000  59 t-inv F
  0.100000  0.400000 -0.300000    0.00100000  59 t-inv F
  0.200000 -0.400000 -0.100000    0.00100000  60 t-inv F
  0.200000 -0.100000 -0.400000    0.00100000  60 t-inv F
 -0.200000  0.100000  0.400000    0.00100000  60 t-inv F
  0.100000 -0.200000  0.400000    0.00100000  60 t-inv F
 -0.100000  0.200000 -0.400000    0.00100000  60 t-inv F
 -0.400000  0.200000 -0.100000    0.00100000  60 t-inv F
  0.400000 -0.200000  0.100000    0.00100000  60 t-inv F
  0.400000  0.100000 -0.200000    0.00100000  60 t-inv F
 -0.400000 -0.100000  0.200000    0.00100000  60 t-inv F
 -0.100000 -0.400000  0.200000    0.00100000  60 t-inv F
  0.100000  0.400000 -0.200000    0.00100000  60 t-inv F
  0.100000 -0.400000 -0.100000    0.00100000  61 t-inv F
  0.100000 -0.100000 -0.400000    0.00100000  61 t-inv F
 -0.100000  0.100000  0.400000    0.00100000  61 t-inv F
  0.100000 -0.100000  0.400000    0.00100000  61 t-inv F
 -0.100000  0.100000 -0.400000    0.00100000  61 t-inv F
 -0.400000  0.100000 -0.100000    0.00100000  61 t-inv F
  0.400000 -0.100000  0.100000    0.00100000  61 t-inv F
  0.400000  0.100000 -0.100000    0.00100000  61 t-inv F
 -0.400000 -0.100000  0.100000    0.00100000  61 t-inv F
 -0.100000 -0.400000  0.100000    0.00100000  61 t-inv F
  0.100000  0.400000 -0.100000    0.00100000  61 t-inv F
 -0.500000 -0.500000 -0.100000    0.00100000  62 t-inv F
 -0.500000 -0.100000 -0.500000    0.00100000  62 t-inv F
  0.500000  0.100000  0.500000    0.00100000  62 t-inv F
  0.100000  0.500000  0.500000    0.00100000  62 t-inv F
 -0.100000 -0.500000 -0.500000    0.00100000  62 t-inv F
  0.400000 -0.500000 -0.100000    0.00100000  63 t-inv F
  0.400000 -0.100000 -0.500000    0.00100000  63 t-inv F
 -0.400000  0.100000  0.500000    0.00100000  63 t-inv F
  0.100000 -0.400000  0.500000    0.00100000  63 t-inv F
 -0.100000  0.400000 -0.500000    0.00100000  63 t-inv F
 -0.500000  0.400000 -0.100000    0.00100000  63 t-inv F
  0.500000 -0.400000  0.100000    0.00100000  63 t-inv F
  0.500000  0.100000 -0.400000    0.00100000  63 t-inv F
 -0.500000 -0.100000  0.400000    0.00100000  63 t-inv F
 -0.100000 -0.500000  0.400000    0.00100000  63 t-inv F
  0.100000  0.500000 -0.400000    0.00100000  63 t-inv F
  0.300000 -0.500000 -0.100000    0.00100000  64 t-inv F
  0.300000 -0.100000 -0.500000    0.00100000  64 t-inv F
 -0.300000  0.100000  0.500000    0.00100000  64 t-inv F
  0.100000 -0.300000  0.500000    0.00100000  64 t-inv F
 -0.100000  0.300000 -0.500000    0.00100000  64 t-inv F
 -0.500000  0.300000 -0.100000    0.00100000  64 t-inv F
  0.500000 -0.300000  0.100000    0.00100000  64 t-inv F
  0.500000  0.100000 -0.300000    0.00100000  64 t-inv F
 -0.500000 -0.100000  0.300000    0.00100000  64 t-inv F
 -0.100000 -0.500000  0.300000    0.00100000  64 t-inv F
  0.100000  0.500000 -0.300000    0.00100000  64 t-inv F
  0.200000 -0.500000 -0.100000    0.00100000  65 t-inv F
  0.200000 -0.100000 -0.500000    0.00100000  65 t-inv F
 -0.200000  0.100000  0.500000    0.00100000  65 t-inv F
  0.100000 -0.200000  0.500000    0.00100000  65 t-inv F
 -0.100000  0.200000 -0.500000    0.00100000  65 t-inv F
 -0.500000  0.200000 -0.100000    0.00100000  65 t-inv F
  0.500000 -0.200000  0.100000    0.00100000  65 t-inv F
  0.500000  0.100000 -0.200000    0.00100000  65 t-inv F
 -0.500000 -0.100000  0.200000    0.00100000  65 t-inv F
 -0.100000 -0.500000  0.200000    0.00100000  65 t-inv F
  0.100000  0.500000 -0.200000    0.00100000  65 t-inv F
  0.100000 -0.500000 -0.100000    0.00100000  66 t-inv F
  0.100000 -0.100000 -0.500000    0.00100000  66 t-inv F
 -0.100000  0.100000  0.500000    0.00100000  66 t-inv F
 -0.500000  0.100000 -0.100000    0.00100000  66 t-inv F
  0.500000 -0.100000  0.100000    0.00100000  66 t-inv F
  0.400000  0.400000 -0.100000    0.00100000  67 t-inv F
  0.400000 -0.100000  0.400000    0.00100000  67 t-inv F
 -0.400000  0.100000 -0.400000    0.00100000  67 t-inv F
  0.100000 -0.400000 -0.400000    0.00100000  67 t-inv F
 -0.100000  0.400000  0.400000    0.00100000  67 t-inv F
  0.300000  0.400000 -0.100000    0.00100000  68 t-inv F
  0.300000 -0.100000  0.400000    0.00100000  68 t-inv F
 -0.300000  0.100000 -0.400000    0.00100000  68 t-inv F
  0.100000 -0.300000 -0.400000    0.00100000  68 t-inv F
 -0.100000  0.300000  0.400000    0.00100000  68 t-inv F
  0.400000  0.300000 -0.100000    0.00100000  68 t-inv F
 -0.400000 -0.300000  0.100000    0.00100000  68 t-inv F
 -0.400000  0.100000 -0.300000    0.00100000  68 t-inv F
  0.400000 -0.100000  0.300000    0.00100000  68 t-inv F
 -0.100000  0.400000  0.300000    0.00100000  68 t-inv F
  0.100000 -0.400000 -0.300000    0.00100000  68 t-inv F
  0.200000  0.400000 -0.100000    0.00100000  69 t-inv F
  0.200000 -0.100000  0.400000    0.00100000  69 t-inv F
 -0.200000  0.100000 -0.400000    0.00100000  69 t-inv F
  0.100000 -0.200000 -0.400000    0.00100000  69 t-inv F
 -0.100000  0.200000  0.400000    0.00100000  69 t-inv F
  0.400000  0.200000 -0.100000    0.00100000  69 t-inv F
 -0.400000 -0.200000  0.100000    0.00100000  69 t-inv F
 -0.400000  0.100000 -0.200000    0.00100000  69 t-inv F
  0.400000 -0.100000  0.200000    0.00100000  69 t-inv F
 -0.100000  0.400000  0.200000    0.00100000  69 t-inv F
  0.100000 -0.400000 -0.200000    0.00100000  69 t-inv F
  0.300000  0.300000 -0.100000    0.00100000  70 t-inv F
  0.300000 -0.100000  0.300000    0.00100000  70 t-inv F
 -0.300000  0.100000 -0.300000    0.00100000  70 t-inv F
  0.100000 -0.300000 -0.300000    0.00100000  70 t-inv F
 -0.100000  0.300000  0.300000    0.00100000  70 t-inv F
  0.200000  0.300000 -0.100000    0.00100000  71 t-inv F
  0.200000 -0.100000  0.300000    0.00100000  71 t-inv F
 -0.200000  0.100000 -0.300000    0.00100000  71 t-inv F
  0.100000 -0.200000 -0.300000    0.00100000  71 t-inv F
 -0.100000  0.200000  0.300000    0.00100000  71 t-inv F
  0.300000  0.200000 -0.100000    0.00100000  71 t-inv F
 -0.300000 -0.200000  0.100000    0.00100000  71 t-inv F
 -0.300000  0.100000 -0.200000    0.00100000  71 t-inv F
  0.300000 -0.100000  0.200000    0.00100000  71 t-inv F
 -0.100000  0.300000  0.200000    0.00100000  71 t-inv F
  0.100000 -0.300000 -0.200000    0.00100000  71 t-inv F
  0.200000  0.200000 -0.100000    0.00100000  72 t-inv F
  0.200000 -0.100000  0.200000    0.00100000  72 t-inv F
 -0.200000  0.100000 -0.200000    0.00100000  72 t-inv F
  0.100000 -0.200000 -0.200000    0.00100000  72 t-inv F
 -0.100000  0.200000  0.200000    0.00100000  72 t-inv F
 -0.200000 -0.200000 -0.200000    0.00100000  73 t-inv F
 -0.300000 -0.200000 -0.200000    0.00100000  74 t-inv F
  0.200000  0.300000  0.200000    0.00100000  74 t-inv F
 -0.200000 -0.300000 -0.200000    0.00100000  74 t-inv F
  0.200000  0.200000  0.300000    0.00100000  74 t-inv F
 -0.200000 -0.200000 -0.300000    0.00100000  74 t-inv F
 -0.400000 -0.200000 -0.200000    0.00100000  75 t-inv F
  0.200000  0.400000  0.200000    0.00100000  75 t-inv F
 -0.200000 -0.400000 -0.200000    0.00100000  75 t-inv F
  0.200000  0.200000  0.400000    0.00100000  75 t-inv F
 -0.200000 -0.200000 -0.400000    0.00100000  75 t-inv F
 -0.500000 -0.200000 -0.200000    0.00100000  76 t-inv F
  0.200000  0.500000  0.200000    0.00100000  76 t-inv F
 -0.200000 -0.500000 -0.200000    0.00100000  76 t-inv F
  0.200000  0.200000  0.500000    0.00100000  76 t-inv F
 -0.200000 -0.200000 -0.500000    0.00100000  76 t-inv F
  0.400000 -0.200000 -0.200000    0.00100000  77 t-inv F
  0.200000 -0.400000  0.200000    0.00100000  77 t-inv F
 -0.200000  0.400000 -0.200000    0.00100000  77 t-inv F
  0.200000  0.200000 -0.400000    0.00100000  77 t-inv F
 -0.200000 -0.200000  0.400000    0.00100000  77 t-inv F
  0.300000 -0.200000 -0.200000    0.00100000  78 t-inv F
  0.200000 -0.300000  0.200000    0.00100000  78 t-inv F
 -0.200000  0.300000 -0.200000    0.00100000  78 t-inv F
  0.200000  0.200000 -0.300000    0.00100000  78 t-inv F
 -0.200000 -0.200000  0.300000    0.00100000  78 t-inv F
  0.200000 -0.200000 -0.200000    0.00100000  79 t-inv F
  0.200000 -0.200000  0.200000    0.00100000  79 t-inv F
 -0.200000  0.200000 -0.200000    0.00100000  79 t-inv F
  0.200000  0.200000 -0.200000    0.00100000  79 t-inv F
 -0.200000 -0.200000  0.200000    0.00100000  79 t-inv F
 -0.300000 -0.300000 -0.200000    0.00100000  80 t-inv F
 -0.300000 -0.200000 -0.300000    0.00100000  80 t-inv F
  0.300000  0.200000  0.300000    0.00100000  80 t-inv F
  0.200000  0.300000  0.300000    0.00100000  80 t-inv F
 -0.200000 -0.300000 -0.300000    0.00100000  80 t-inv F
 -0.400000 -0.300000 -0.200000    0.00100000  81 t-inv F
 -0.400000 -0.200000 -0.300000    0.00100000  81 t-inv F
  0.400000  0.200000  0.300000    0.00100000  81 t-inv F
  0.200000  0.400000  0.300000    0.00100000  81 t-inv F
 -0.200000 -0.400000 -0.300000    0.00100000  81 t-inv F
 -0.300000 -0.400000 -0.200000    0.00100000  81 t-inv F
  0.300000  0.400000  0.200000    0.00100000  81 t-inv F
  0.300000  0.200000  0.400000    0.00100000  81 t-inv F
 -0.300000 -0.200000 -0.400000    0.00100000  81 t-inv F
 -0.200000 -0.300000 -0.400000    0.00100000  81 t-inv F
  0.200000  0.300000  0.400000    0.00100000  81 t-inv F
 -0.500000 -0.300000 -0.200000    0.00100000  82 t-inv F
 -0.500000 -0.200000 -0.300000    0.00100000  82 t-inv F
  0.500000  0.200000  0.300000    0.00100000  82 t-inv F
  0.200000  0.500000  0.300000    0.00100000  82 t-inv F
 -0.200000 -0.500000 -0.300000    0.00100000  82 t-inv F
 -0.300000 -0.500000 -0.200000    0.00100000  82 t-inv F
  0.300000  0.500000  0.200000    0.00100000  82 t-inv F
  0.300000  0.200000  0.500000    0.00100000  82 t-inv F
 -0.300000 -0.200000 -0.500000    0.00100000  82 t-inv F
 -0.200000 -0.300000 -0.500000    0.00100000  82 t-inv F
  0.200000  0.300000  0.500000    0.00100000  82 t-inv F
  0.400000 -0.300000 -0.200000    0.00100000  83 t-inv F
  0.400000 -0.200000 -0.300000    0.00100000  83 t-inv F
 -0.400000  0.200000  0.300000    0.00100000  83 t-inv F
  0.200000 -0.400000  0.300000    0.00100000  83 t-inv F
 -0.200000  0.400000 -0.300000    0.00100000  83 t-inv F
 -0.300000  0.400000 -0.200000    0.00100000  83 t-inv F
  0.300000 -0.400000  0.200000    0.00100000  83 t-inv F
  0.300000  0.200000 -0.400000    0.00100000  83 t-inv F
 -0.300000 -0.200000  0.400000    0.00100000  83 t-inv F
 -0.200000 -0.300000  0.400000    0.00100000  83 t-inv F
  0.200000  0.300000 -0.400000    0.00100000  83 t-inv F
  0.300000 -0.300000 -0.200000    0.00100000  84 t-inv F
  0.300000 -0.200000 -0.300000    0.00100000  84 t-inv F
 -0.300000  0.200000  0.300000    0.00100000  84 t-inv F
  0.200000 -0.300000  0.300000    0.00100000  84 t-inv F
 -0.200000  0.300000 -0.300000    0.00100000  84 t-inv F
 -0.300000  0.300000 -0.200000    0.00100000  84 t-inv F
  0.300000 -0.300000  0.200000    0.00100000  84 t-inv F
  0.300000  0.200000 -0.300000    0.00100000  84 t-inv F
 -0.300000 -0.200000  0.300000    0.00100000  84 t-inv F
 -0.200000 -0.300000  0.300000    0.00100000  84 t-inv F
  0.200000  0.300000 -0.300000    0.00100000  84 t-inv F
  0.200000 -0.300000 -0.200000    0.00100000  85 t-inv F
  0.200000 -0.200000 -0.300000    0.00100000  85 t-inv F
 -0.200000  0.200000  0.300000    0.00100000  85 t-inv F
  0.200000 -0.200000  0.300000    0.00100000  85 t-inv F
 -0.200000  0.200000 -0.300000    0.00100000  85 t-inv F
 -0.300000  0.200000 -0.200000    0.00100000  85 t-inv F
  0.300000 -0.200000  0.200000    0.00100000  85 t-inv F
  0.300000  0.200000 -0.200000    0.00100000  85 t-inv F
 -0.300000 -0.200000  0.200000    0.00100000  85 t-inv F
 -0.200000 -0.300000  0.200000    0.00100000  85 t-inv F
  0.200000  0.300000 -0.200000    0.00100000  85 t-inv F
 -0.400000 -0.400000 -0.200000    0.00100000  86 t-inv F
 -0.400000 -0.200000 -0.400000    0.00100000  86 t-inv F
  0.400000  0.200000  0.400000    0.00100000  86 t-inv F
  0.200000  0.400000  0.400000    0.00100000  86 t-inv F
 -0.200000 -0.400000 -0.400000    0.00100000  86 t-inv F
 -0.500000 -0.400000 -0.200000    0.00100000  87 t-inv F
 -0.500000 -0.200000 -0.400000    0.00100000  87 t-inv F
  0.500000  0.200000  0.400000    0.00100000  87 t-inv F
  0.200000  0.500000  0.400000    0.00100000  87 t-inv F
 -0.200000 -0.500000 -0.400000    0.00100000  87 t-inv F
 -0.400000 -0.500000 -0.200000    0.00100000  87 t-inv F
  0.400000  0.500000  0.200000    0.00100000  87 t-inv F
  0.400000  0.200000  0.500000    0.00100000  87 t-inv F
 -0.400000 -0.200000 -0.500000    0.00100000  87 t-inv F
 -0.200000 -0.400000 -0.500000    0.00100000  87 t-inv F
  0.200000  0.400000  0.500000    0.00100000  87 t-inv F
  0.400000 -0.400000 -0.200000    0.00100000  88 t-inv F
  0.400000 -0.200000 -0.400000    0.00100000  88 t-inv F
 -0.400000  0.200000  0.400000    0.00100000  88 t-inv F
  0.200000 -0.400000  0.400000    0.00100000  88 t-inv F
 -0.200000  0.400000 -0.400000    0.00100000  88 t-inv F
 -0.400000  0.400000 -0.200000    0.00100000  88 t-inv F
  0.400000 -0.400000  0.200000    0.00100000  88 t-inv F
  0.400000  0.200000 -0.400000    0.00100000  88 t-inv F
 -0.400000 -0.200000  0.400000    0.00100000  88 t-inv F
 -0.200000 -0.400000  0.400000    0.00100000  88 t-inv F
  0.200000  0.400000 -0.400000    0.00100000  88 t-inv F
  0.300000 -0.400000 -0.200000    0.00100000  89 t-inv F
  0.300000 -0.200000 -0.400000    0.00100000  89 t-inv F
 -0.300000  0.200000  0.400000    0.00100000  89 t-inv F
  0.200000 -0.300000  0.400000    0.00100000  89 t-inv F
 -0.200000  0.300000 -0.400000    0.00100000  89 t-inv F
 -0.400000  0.300000 -0.200000    0.00100000  89 t-inv F
  0.400000 -0.300000  0.200000    0.00100000  89 t-inv F
  0.400000  0.200000 -0.300000    0.00100000  89 t-inv F
 -0.400000 -0.200000  0.300000    0.00100000  89 t-inv F
 -0.200000 -0.400000  0.300000    0.00100000  89 t-inv F
  0.200000  0.400000 -0.300000    0.00100000  89 t-inv F
  0.200000 -0.400000 -0.200000    0.00100000  90 t-inv F
[...]
      1    -105.4673      2.00000
      2     -63.1614      2.00000
      3     -62.9532      2.00000
      4     -62.9517      2.00000
      5     -15.0409      2.00000
      6     -13.2317      2.00000
      7      -1.2469      2.00000
      8       0.0037      2.00000
      9       1.8561      2.00000
     10       2.1544      2.00000
     11       2.1794      2.00000
     12       2.5319      2.00000
     13       2.6359      2.00000
     14       3.9887      2.00000
     15       4.1015      2.00000
     16       4.9272      2.00000
     17       5.0339      2.00000
     18       9.3384      0.00000
     19      10.9701      0.00000
     20      13.5266      0.00000
     21      17.9054      0.00000
     22      18.8629      0.00000
     23      19.9604      0.00000
     24      19.9723      0.00000
     25      21.1977      0.00000
     26      22.3715      0.00000
     27      23.2252      0.00000
     28      24.1984      0.00000
     29      25.6161      0.00000
     30      27.4462      0.00000
     31      28.2709      0.00000
     32      28.9230      0.00000
     33      30.2320      0.00000
     34      31.2887      0.00000
     35      32.2240      0.00000
     36      34.0996      0.00000

 k-point   115 :      -0.4000    0.5000    0.4000
  band No.  band energies     occupation 
      1    -105.4669      2.00000
      2     -63.1612      2.00000
      3     -62.9567      2.00000
      4     -62.9527      2.00000
      5     -14.8048      2.00000
      6     -13.1376      2.00000
      7      -1.0766      2.00000
      8      -0.2769      2.00000
      9       1.3646      2.00000
     10       1.6028      2.00000
     11       2.1920      2.00000
     12       2.4044      2.00000
     13       2.7839      2.00000
     14       3.9137      2.00000
     15       4.2567      2.00000
     16       4.7994      2.00000
     17       4.9819      2.00000
     18       9.1950      0.00000
     19      11.8544      0.00000
     20      14.3435      0.00000
     21      17.2597      0.00000
     22      18.3316      0.00000
     23      18.9274      0.00000
     24      20.4761      0.00000
     25      20.5854      0.00000
     26      21.6793      0.00000
     27      22.6555      0.00000
     28      23.4001      0.00000
     29      26.5604      0.00000
     30      26.7989      0.00000
     31      28.7180      0.00000
     32      29.9540      0.00000
     33      30.7110      0.00000
     34      31.7491      0.00000
     35      32.3108      0.00000
     36      32.7241      0.00000

 k-point   116 :       0.5000    0.5000    0.5000
  band No.  band energies     occupation 
      1    -105.4675      2.00000
      2     -63.1617      2.00000
      3     -62.9510      2.00000
      4     -62.9510      2.00000
      5     -15.1622      2.00000
      6     -13.2886      2.00000
      7      -1.3037      2.00000
      8       0.0614      2.00000
      9       2.0808      2.00000
     10       2.3117      2.00000
     11       2.3117      2.00000
     12       2.6692      2.00000
     13       2.6692      2.00000
     14       4.0295      2.00000
     15       4.0295      2.00000
     16       5.0446      2.00000
     17       5.0446      2.00000
     18       9.4432      0.00000
     19      10.3884      0.00000
     20      13.0541      0.00000
     21      18.1101      0.00000
     22      19.7111      0.00000
     23      19.7112      0.00000
     24      20.9156      0.00000
     25      20.9169      0.00000
     26      21.5898      0.00000
     27      25.2940      0.00000
     28      25.2941      0.00000
     29      25.9471      0.00000
     30      26.2998      0.00000
     31      28.2735      0.00000
     32      28.2735      0.00000
     33      29.0460      0.00000
     34      29.0460      0.00000
     35      30.2119      0.00000
     36      31.5882      0.00000


--------------------------------------------------------------------------------------------------------


 soft charge-density along one line, spin component           1
         0         1         2         3         4         5         6         7         8         9
 total charge-density along one line
 
 pseudopotential strength for first ion, spin component:           1
-79.472  14.513 -15.550   0.000   0.000   0.000   0.000   0.000
 14.513   3.471  -6.472  -0.000  -0.000  -0.000  -0.000  -0.000
-15.550  -6.472  13.141   0.000   0.000   0.000   0.000   0.000
  0.000  -0.000   0.000 -68.503   0.000  -0.000 -59.778   0.000
  0.000  -0.000   0.000   0.000 -68.557   0.000   0.000 -59.824
  0.000  -0.000   0.000  -0.000   0.000 -68.503  -0.000   0.000
  0.000  -0.000   0.000 -59.778   0.000  -0.000 -52.230   0.000
  0.000  -0.000   0.000   0.000 -59.824   0.000   0.000 -52.269
  0.000  -0.000   0.000  -0.000   0.000 -59.778  -0.000   0.000
  0.000   0.000  -0.000  10.799   0.000  -0.000   7.081   0.000
  0.000   0.000  -0.000   0.000  10.705   0.000   0.000   6.997
  0.000   0.000  -0.000  -0.000   0.000  10.799  -0.000   0.000
 -0.000   0.000   0.000   0.000  -0.000   0.000   0.000  -0.000
  0.000  -0.000   0.000   0.000   0.000  -0.000   0.000   0.000
 -0.029   0.015   0.006  -0.000   0.000  -0.000  -0.000   0.000
  0.000  -0.000  -0.000  -0.000   0.000   0.000  -0.000   0.000
  0.000  -0.000   0.000  -0.000  -0.000   0.000  -0.000  -0.000
  0.000   0.000  -0.000  -0.000   0.000  -0.000  -0.000   0.000
 -0.000   0.000  -0.000  -0.000  -0.000   0.000  -0.000  -0.000
  0.063   0.006  -0.035   0.000  -0.000   0.000   0.000  -0.000
 -0.000  -0.000   0.000   0.000  -0.000  -0.000   0.000  -0.000
 -0.000   0.000  -0.000   0.000   0.000  -0.000   0.000   0.000
 -0.000  -0.000   0.000   0.000  -0.000   0.000   0.000  -0.000
  0.000  -0.000   0.000   0.000   0.000  -0.000   0.000   0.000
 -0.114  -0.031   0.078  -0.000   0.000  -0.000  -0.000   0.000
  0.000   0.000  -0.000  -0.000   0.000   0.000  -0.000   0.000
  0.000  -0.000   0.000  -0.000  -0.000   0.000  -0.000  -0.000
  0.000  -0.000  -0.000   0.000   0.000  -0.000   0.000   0.000
 -0.000   0.000   0.000   0.000  -0.000   0.000   0.000  -0.000
  0.000  -0.000  -0.000   0.008   0.000   0.000   0.008   0.000
 -0.000   0.000   0.000  -0.000  -0.006  -0.000  -0.000  -0.004
  0.000  -0.000  -0.000   0.000   0.000   0.008   0.000   0.000
 -0.000   0.000   0.000   0.000   0.000   0.000   0.000   0.000
  0.000  -0.000  -0.000   0.000  -0.000   0.000   0.000  -0.000
 -0.000   0.000  -0.000  -0.000  -0.000   0.000  -0.000  -0.000
  0.000  -0.000   0.000  -0.000   0.000  -0.000  -0.000   0.000
 -0.000   0.000  -0.000  -0.030  -0.000  -0.000  -0.028  -0.000
  0.000  -0.000   0.000   0.000   0.041   0.000   0.000   0.034
 -0.000   0.000  -0.000  -0.000  -0.000  -0.030  -0.000  -0.000
  0.000  -0.000   0.000  -0.000  -0.000  -0.000  -0.000  -0.000
 -0.000   0.000  -0.000  -0.000   0.000  -0.000  -0.000   0.000
 total augmentation occupancy for first ion, spin component:           1
  2.002   0.011   0.007   0.000   0.000   0.000   0.000   0.000   0.000   0.000   0.000   0.000   0.000  -0.000  -0.001  -0.000
  0.011   1.161   0.005   0.000   0.000   0.000   0.000   0.000   0.000   0.000   0.000   0.000   0.000  -0.000  -0.412  -0.000
  0.007   0.005   0.000   0.000   0.000   0.000   0.000   0.000   0.000   0.000   0.000   0.000   0.000   0.000   0.001   0.000
  0.000   0.000   0.000   2.561   0.000   0.000  -0.659  -0.000   0.000   0.029   0.000  -0.000   0.000   0.000   0.000   0.000
  0.000   0.000   0.000   0.000   4.437  -0.000  -0.000  -2.692   0.000   0.000   0.081  -0.000   0.000   0.000   0.000   0.000
  0.000   0.000   0.000   0.000  -0.000   2.561   0.000   0.000  -0.659   0.000  -0.000   0.029   0.000   0.000   0.000   0.000
  0.000   0.000   0.000  -0.659  -0.000   0.000   0.778   0.000   0.000  -0.022  -0.000   0.000   0.000   0.000   0.000   0.000
  0.000   0.000   0.000  -0.000  -2.692   0.000   0.000   2.980  -0.000  -0.000  -0.078   0.000   0.000   0.000   0.000   0.000
  0.000   0.000   0.000   0.000   0.000  -0.659   0.000  -0.000   0.778   0.000   0.000  -0.022   0.000   0.000   0.000   0.000
  0.000   0.000   0.000   0.029   0.000   0.000  -0.022  -0.000  -0.000   0.001   0.000   0.000   0.000   0.000   0.000   0.000
  0.000   0.000   0.000   0.000   0.081  -0.000  -0.000  -0.078   0.000   0.000   0.002  -0.000   0.000   0.000   0.000   0.000
  0.000   0.000   0.000   0.000  -0.000   0.029   0.000   0.000  -0.022   0.000  -0.000   0.001   0.000   0.000   0.000   0.000
  0.000   0.000   0.000   0.000   0.000   0.000   0.000   0.000   0.000   0.000   0.000   0.000   1.980  -0.000  -0.000   0.001
 -0.000  -0.000   0.000   0.000   0.000   0.000   0.000   0.000   0.000   0.000   0.000   0.000  -0.000   2.025   0.000   0.000
 -0.001  -0.412   0.001   0.000   0.000   0.000   0.000   0.000   0.000   0.000   0.000   0.000  -0.000   0.000   1.720  -0.000
 -0.000  -0.000   0.000   0.000   0.000   0.000   0.000   0.000   0.000   0.000   0.000   0.000   0.001   0.000  -0.000   2.025
  0.000   0.000  -0.000   0.000   0.000   0.000   0.000   0.000   0.000   0.000   0.000   0.000   0.000   0.001  -0.000  -0.000
  0.000   0.000   0.000   0.000   0.000   0.000   0.000   0.000   0.000   0.000   0.000   0.000  -0.008   0.000   0.000  -0.000
 -0.000   0.000   0.000   0.000   0.000   0.000   0.000   0.000   0.000   0.000   0.000   0.000   0.000  -0.021   0.000   0.000
 -0.000   0.121   0.001   0.000   0.000   0.000   0.000   0.000   0.000   0.000   0.000   0.000   0.000   0.000   0.043   0.000
 -0.000   0.000   0.000   0.000   0.000   0.000   0.000   0.000   0.000   0.000   0.000   0.000  -0.000  -0.000   0.000  -0.021
  0.000  -0.000  -0.000   0.000   0.000   0.000   0.000   0.000   0.000   0.000   0.000   0.000   0.000  -0.000  -0.000   0.000
  0.000   0.000   0.000   0.000   0.000   0.000   0.000   0.000   0.000   0.000   0.000   0.000   0.009  -0.000   0.000  -0.000
 -0.000   0.000   0.000   0.000   0.000   0.000   0.000   0.000   0.000   0.000   0.000   0.000  -0.000   0.007   0.000   0.000
 -0.000   0.014   0.000   0.000   0.000   0.000   0.000   0.000   0.000   0.000   0.000   0.000   0.000   0.000   0.015   0.000
 -0.000   0.000   0.000   0.000   0.000   0.000   0.000   0.000   0.000   0.000   0.000   0.000  -0.000   0.000   0.000   0.007
  0.000  -0.000  -0.000   0.000   0.000   0.000   0.000   0.000   0.000   0.000   0.000   0.000   0.000  -0.000  -0.000  -0.000
  0.000   0.000   0.000   0.000   0.000   0.000  -0.000  -0.000   0.000   0.000   0.000   0.000   0.000   0.000   0.000   0.000
  0.000   0.000   0.000  -0.000   0.000   0.001   0.000  -0.000  -0.001  -0.000   0.000   0.000   0.000   0.000   0.000   0.000
  0.000   0.000   0.000  -0.015  -0.000   0.000   0.015   0.000  -0.000  -0.000  -0.000  -0.000   0.000   0.000   0.000   0.000
  0.000   0.000   0.000  -0.000  -0.159   0.000   0.000   0.168  -0.000  -0.000  -0.004   0.000   0.000   0.000   0.000   0.000
  0.000   0.000   0.000  -0.000  -0.000  -0.015   0.000   0.000   0.015  -0.000  -0.000  -0.000   0.000   0.000   0.000   0.000
  0.000   0.000   0.000   0.001   0.000  -0.000  -0.001  -0.000   0.000   0.000   0.000  -0.000   0.000   0.000   0.000   0.000
  0.000   0.000   0.000   0.000   0.000   0.000  -0.000   0.000  -0.000   0.000   0.000   0.000   0.000   0.000   0.000   0.000
  0.000   0.000   0.000   0.000   0.000   0.000  -0.000  -0.000   0.000   0.000   0.000   0.000   0.000   0.000   0.000   0.000
  0.000   0.000   0.000  -0.000   0.000   0.000   0.000  -0.000  -0.000  -0.000   0.000   0.000   0.000   0.000   0.000   0.000
  0.000   0.000   0.000  -0.002  -0.000   0.000   0.001   0.000   0.000  -0.000  -0.000   0.000   0.000   0.000   0.000   0.000
  0.000   0.000   0.000  -0.000  -0.011   0.000   0.000   0.008  -0.000  -0.000  -0.000   0.000   0.000   0.000   0.000   0.000
  0.000   0.000   0.000  -0.000  -0.000  -0.002   0.000   0.000   0.001  -0.000  -0.000  -0.000   0.000   0.000   0.000   0.000
  0.000   0.000   0.000   0.000   0.000  -0.000  -0.000  -0.000   0.000   0.000   0.000  -0.000   0.000   0.000   0.000   0.000
  0.000   0.000   0.000   0.000   0.000   0.000   0.000   0.000  -0.000  -0.000   0.000   0.000   0.000   0.000   0.000   0.000


------------------------ aborting loop because EDIFF is reached ----------------------------------------


    CHARGE:  cpu time    0.3718: real time    0.3747
    FORLOC:  cpu time    0.0183: real time    0.0184
    FORNL :  cpu time    0.6689: real time    0.6738
    STRESS:  cpu time    2.8881: real time    2.9201
    FORCOR:  cpu time    0.2650: real time    0.4834
    FORHAR:  cpu time    0.0547: real time    0.0549
    MIXING:  cpu time    0.0143: real time    0.0144
    OFIELD:  cpu time    0.0001: real time    0.0001

  FORCE on cell =-STRESS in cart. coord.  units (eV):
  Direction    XX          YY          ZZ          XY          YZ          ZX
  --------------------------------------------------------------------------------------
  Alpha Z   167.28214   167.28214   167.28214
  Ewald   -1091.24516 -1091.24515 -1168.58029     0.00000     0.00000     0.00000
  Hartree   902.07447   902.07447   596.71389    -0.00000     0.00000     0.00000
  E(xc)    -218.97721  -218.97721  -218.43674    -0.00000     0.00000     0.00000
  Local    -384.60510  -384.60510    18.31353    -0.00000    -0.00000     0.00000
  n-local  -197.88307  -197.46793  -200.27205     0.30384     0.62630    -0.66424
  augment   206.92120   206.92120   200.76698    -0.00000     0.00000     0.00000
  Kinetic   617.34784   615.28643   604.29896    -4.41586    -0.88135    -0.13789
  Fock        0.00000     0.00000     0.00000     0.00000     0.00000     0.00000
  -------------------------------------------------------------------------------------
  Total       0.09197     0.09197     0.08643     0.00000     0.00000    -0.00000
  in kB       3.74799     3.74799     3.52206     0.00000     0.00000    -0.00000
  external pressure =        3.67 kB  Pullay stress =        0.00 kB


 VOLUME and BASIS-vectors are now :
 -----------------------------------------------------------------------------
  energy-cutoff  :      550.00
  volume of cell :       39.32
      direct lattice vectors                 reciprocal lattice vectors
     1.420054545  0.819868875  5.628279077     0.352099151  0.203284540  0.059224734
    -1.420054545  0.819868875  5.628279077    -0.352099151  0.203284540  0.059224734
     0.000000000 -1.639737740  5.628279077    -0.000000000 -0.406569081  0.059224735

  length of vectors
     5.862274751  5.862274751  5.862274749     0.410860056  0.410860056  0.410860057


 FORCES acting on ions
    electron-ion (+dipol)            ewald-force                    non-local-force                 convergence-correction
 -----------------------------------------------------------------------------------------------
   0.316E-13 0.136E-12 -.161E-12   0.149E-13 -.146E-13 -.114E-12   -.125E-22 0.525E-23 -.164E-22   -.298E-13 -.106E-13 0.125E-12
   -.455E-12 -.536E-12 -.559E-12   -.323E-14 -.364E-14 0.284E-13   0.122E-23 -.143E-23 0.720E-24   0.214E-15 -.116E-15 -.697E-14
   0.174E-10 -.140E-06 -.348E+03   -.196E-14 0.446E-07 0.344E+03   -.370E-17 0.263E-08 0.444E+01   0.200E-13 0.104E-11 0.267E-02
   -.135E-10 0.140E-06 0.348E+03   0.173E-14 -.446E-07 -.344E+03   0.167E-17 -.263E-08 -.444E+01   -.245E-13 -.103E-11 -.267E-02
 -----------------------------------------------------------------------------------------------
   0.350E-11 0.114E-10 -.216E-11   0.114E-13 -.139E-13 0.000E+00   -.204E-17 -.476E-17 0.888E-15   -.341E-13 0.306E-14 0.874E-13
 
 
 POSITION                                       TOTAL-FORCE (eV/Angst)
 -----------------------------------------------------------------------------------
      0.00000      0.00000      0.00000         0.000000      0.000000     -0.000000
      0.00000      0.00000      8.44242         0.000000      0.000000     -0.000000
     -0.00000      0.00000      1.84997         0.000000      0.000000      0.000358
      0.00000      0.00000     15.03487        -0.000000     -0.000000     -0.000358
 -----------------------------------------------------------------------------------
    total drift:                                0.000000      0.000000     -0.000000


--------------------------------------------------------------------------------------------------------



  FREE ENERGIE OF THE ION-ELECTRON SYSTEM (eV)
  ---------------------------------------------------
  free  energy   TOTEN  =       -27.41131133 eV

  energy  without entropy=      -27.41131133  energy(sigma->0) =      -27.41131133
 


--------------------------------------------------------------------------------------------------------


    POTLOK:  cpu time    0.5249: real time    0.5275


--------------------------------------------------------------------------------------------------------


 
 Found     6 degrees of freedom:
  ----------------------------------------------
 
     directions for atom     1:  z 
     directions for atom     2:  z 
     directions for atom     3:  z 
 Linear response reoptimize wavefunctions
 Linear response G [H, r] |phi>, progress :
  Direction:   1


----------------------------------------- Iteration    1(   1)  ---------------------------------------


    HAMIL1:  cpu time    2.1186: real time    2.1355
    LRDIAG:  cpu time    0.0472: real time    0.0482
    LRDIIS:  cpu time    5.2840: real time    5.3293
    --------------------------------------------
      LOOP:  cpu time    7.4500: real time    7.5132

  free energy    TOTEN  =      -290.52031551 eV
  ---------------------------------------------------


----------------------------------------- Iteration    1(   2)  ---------------------------------------


    HAMIL1:  cpu time    1.8804: real time    1.8988
    LRDIAG:  cpu time    0.0454: real time    0.0468
    LRDIIS:  cpu time   10.3543: real time   10.4717
    --------------------------------------------
      LOOP:  cpu time   12.2803: real time   12.4174

  free energy    TOTEN  =      -291.98934723 eV
  ---------------------------------------------------


----------------------------------------- Iteration    1(   3)  ---------------------------------------


    HAMIL1:  cpu time    1.8793: real time    1.8959
    LRDIAG:  cpu time    0.0477: real time    0.0480
    LRDIIS:  cpu time   11.2298: real time   11.3206
    --------------------------------------------
      LOOP:  cpu time   13.1566: real time   13.2643

  free energy    TOTEN  =      -300.24274709 eV
  ---------------------------------------------------


----------------------------------------- Iteration    1(   4)  ---------------------------------------


    LRDIAG:  cpu time    0.0469: real time    0.0473
    LRDIIS:  cpu time   10.7924: real time   10.8783
    --------------------------------------------
      LOOP:  cpu time   10.8394: real time   10.9256

  free energy    TOTEN  =      -301.14639423 eV
  ---------------------------------------------------


----------------------------------------- Iteration    1(   5)  ---------------------------------------


    LRDIAG:  cpu time    0.0479: real time    0.0482
    LRDIIS:  cpu time   10.7446: real time   10.8295
    --------------------------------------------
      LOOP:  cpu time   10.7925: real time   10.8777

  free energy    TOTEN  =      -301.25011817 eV
  ---------------------------------------------------


----------------------------------------- Iteration    1(   6)  ---------------------------------------


    LRDIAG:  cpu time    0.0482: real time    0.0485
    LRDIIS:  cpu time   10.8407: real time   10.9266
    --------------------------------------------
      LOOP:  cpu time   10.8889: real time   10.9751

  free energy    TOTEN  =      -301.28350383 eV
  ---------------------------------------------------


----------------------------------------- Iteration    1(   7)  ---------------------------------------


    LRDIAG:  cpu time    0.0470: real time    0.0475
