
:LABEL1: Calculations in /home/stevezhang/work/CuMO2/convergence/CuAlO2/rkmax_9-scfk_4c/CuAlO2
:LABEL2: on MZ at Mon Jun 21 18:53:38 CST 2021
:LABEL3: using WIEN2k_14.2 (Release 15/10/2014) in /home/stevezhang/wien2k/v14.2
:LABEL4: using the command: run_lapw -ec 0.000000001


            ---------
:ITE001:  1. ITERATION
            ---------

:NATO :    3 INDEPENDENT AND    4 TOTAL ATOMS IN UNITCELL
       SUBSTANCE: CuAlO2 BenkoF84                                             

       LATTICE                      = R   
:POT  : POTENTIAL OPTION EX_PBE EC_PBE VX_PBE VC_PBE
:LAT  : LATTICE CONSTANTS=  5.40508  5.40508 32.03482
:VOL  : UNIT CELL VOLUME =     270.16967
       MODE OF CALCULATION IS       = RELA
       NON-SPINPOLARIZED CALCULATION
:IFFT  : FFT-parameters:   90   90   90 Factor: 2.00
       ATOMNUMBER=  1 Cu1        VCOUL-ZERO =  0.40703E+00
:EFG001:                        EFG         =     0.13807   *10**21  V / m**2
                               V20  TOT/SRF=     0.11957     0.33258
                               V22  TOT/SRF=     0.00000     0.00000
                               V22M TOT/SRF=     0.00000     0.00000
                               V21  TOT/SRF=     0.00000     0.00000
                               V21M TOT/SRF=     0.00000     0.00000

             -0.06903    0.00000    0.00000       -0.06903    0.00000    0.00000
              0.00000   -0.06903    0.00000        0.00000   -0.06903    0.00000
              0.00000    0.00000    0.13807        0.00000    0.00000    0.13807

         MAIN DIRECTIONS OF THE EFG   1.0000  0.0000  0.0000
                                      0.0000  1.0000  0.0000
                                      0.0000  0.0000  1.0000
:ANG001:  ANGLE WITH OLD X-AXIS =         0.0

:ETA001:                         ASYMM. ETA =     0.00000


       ATOMNUMBER=  2 Al1        VCOUL-ZERO = -0.82422E-01
:EFG002:                        EFG         =    -0.14349   *10**21  V / m**2
                               V20  TOT/SRF=    -0.12427    -0.19634
                               V22  TOT/SRF=     0.00000     0.00000
                               V22M TOT/SRF=     0.00000     0.00000
                               V21  TOT/SRF=     0.00000     0.00000
                               V21M TOT/SRF=     0.00000     0.00000

              0.07175    0.00000    0.00000        0.07175    0.00000    0.00000
              0.00000    0.07175    0.00000        0.00000    0.07175    0.00000
              0.00000    0.00000   -0.14349        0.00000    0.00000   -0.14349

         MAIN DIRECTIONS OF THE EFG   1.0000  0.0000  0.0000
                                      0.0000  1.0000  0.0000
                                      0.0000  0.0000  1.0000
:ANG002:  ANGLE WITH OLD X-AXIS =         0.0

:ETA002:                         ASYMM. ETA =     0.00000


       ATOMNUMBER=  3 O 1        VCOUL-ZERO =  0.17131E-01
:EFG003:                        EFG         =     0.24228   *10**21  V / m**2
                               V20  TOT/SRF=     0.20982     0.27387
                               V22  TOT/SRF=     0.00000     0.00000
                               V22M TOT/SRF=     0.00000     0.00000
                               V21  TOT/SRF=     0.00000     0.00000
                               V21M TOT/SRF=     0.00000     0.00000

             -0.12114    0.00000    0.00000       -0.12114    0.00000    0.00000
              0.00000   -0.12114    0.00000        0.00000   -0.12114    0.00000
              0.00000    0.00000    0.24228        0.00000    0.00000    0.24228

         MAIN DIRECTIONS OF THE EFG   1.0000  0.0000  0.0000
                                      0.0000  1.0000  0.0000
                                      0.0000  0.0000  1.0000
:ANG003:  ANGLE WITH OLD X-AXIS =         0.0

:ETA003:                         ASYMM. ETA =     0.00000


     HELLMANN-FEYNMAN-FORCE IN mRy/a.u. = |F|  Fx       Fy             Fz
:FHF001:   1.ATOM      0.000000000      0.000000000      0.000000000      0.000000000

     HELLMANN-FEYNMAN-FORCE IN mRy/a.u. = |F|  Fx       Fy             Fz
:FHF002:   2.ATOM      0.000000000      0.000000000      0.000000000      0.000000000

     HELLMANN-FEYNMAN-FORCE IN mRy/a.u. = |F|  Fx       Fy             Fz
:FHF003:   3.ATOM    632.579903299      0.000000000      0.000000000   -632.579903299

:FIT001: LUSE= 13 SIGMA OF V-XC FIT FOR ATOM  1  0.7569698E-02
:FIT001: LUSE= 13 SIGMA OF V-XC FIT FOR ATOM  1  0.7569698E-02
:FIT002: LUSE= 13 SIGMA OF V-XC FIT FOR ATOM  2  0.4811514E-02
:FIT002: LUSE= 13 SIGMA OF V-XC FIT FOR ATOM  2  0.4811514E-02
:FIT003: LUSE= 13 SIGMA OF V-XC FIT FOR ATOM  3  0.4855342E-04
:FIT003: LUSE= 13 SIGMA OF V-XC FIT FOR ATOM  3  0.4855342E-04
:DEN  : DENSITY INTEGRAL  =         -1791.58374541   (Ry)
       ELS_POTENTIAL_AT Z=0 and Z=0.5:   0.00000   0.00000
       ELS_POTENTIAL_AT Y=0 and Y=0.5:   0.00000   0.00000
:VZERO:v0,v0c,v0x  -0.83019   0.00000  -0.83019 v5,v5c,v5x  -0.83019   0.00000  -0.83019
:VZERY:v0,v0c,v0x  -0.83019   0.00000  -0.83019 v5,v5c,v5x  -0.83019   0.00000  -0.83019
:VZERX:v0,v0c,v0x  -2.47398  -1.25411  -1.21987 v5,v5c,v5x  -0.00983   0.44443  -0.45426

          ATOMIC SPHERE DEPENDENT PARAMETERS FOR ATOM  Cu1       
:e__0001: OVERALL ENERGY PARAMETER IS    0.3000
          OVERALL BASIS SET ON ATOM IS LAPW
:E1_0001: E( 1)=    0.3000
             APW+lo
:E1_0001: E( 1)=   -4.6487   E(BOTTOM)=   -4.714   E(TOP)=   -4.583  1  2   172
             LOCAL ORBITAL
:E2_0001: E( 2)=    0.2879   E(BOTTOM)=   -0.031   E(TOP)=    0.607  0  1   129
             APW+lo
:E0_0001: E( 0)=    0.3000
             APW+lo

          ATOMIC SPHERE DEPENDENT PARAMETERS FOR ATOM  Al1       
:e__0002: OVERALL ENERGY PARAMETER IS    0.3000
          OVERALL BASIS SET ON ATOM IS LAPW
:E1_0002: E( 1)=    0.3000
             APW+lo
:E1_0002: E( 1)=   -4.1253   E(BOTTOM)=   -4.231   E(TOP)=   -4.020  0  1   162
             LOCAL ORBITAL
:E0_0002: E( 0)=    0.3000
             APW+lo

          ATOMIC SPHERE DEPENDENT PARAMETERS FOR ATOM  O 1       
:e__0003: OVERALL ENERGY PARAMETER IS    0.3000
          OVERALL BASIS SET ON ATOM IS LAPW
:E0_0003: E( 0)=   -1.5500   E(BOTTOM)=   -2.792   E(TOP)= -200.000  1 -1   244
             APW+lo
:E0_0003: E( 0)=    0.7000
             LOCAL ORBITAL
:E1_0003: E( 1)=    0.3000
             APW+lo

       K=   0.00000   0.00000   0.00000            1
:RKM  : MATRIX SIZE  1268LOs:  29  RKM= 8.99  WEIGHT= 1.00  PGR:    
       EIGENVALUES ARE:
:EIG00001:      -4.6408643   -4.6309848   -4.6309848   -4.1002926   -4.1002926
:EIG00006:      -4.0957608   -1.1956092   -1.0573738   -0.2100760    0.0630793
:EIG00011:       0.0630793    0.0671714    0.1308080    0.1308080    0.2218228
:EIG00016:       0.3270775    0.3270775    0.3614894    0.3614894    0.5747304
:EIG00021:       0.9044875    0.9510260    1.3462910    1.4893784    1.4893784
:EIG00026:       1.5573300    1.5865489    1.5865489    1.9074040    1.9666950
:EIG00031:       1.9666950
       ********************************************************

:KPT   :      NUMBER OF K-POINTS:    13
       Insulator, EF-inconsistency corrected
:GAP  :    0.1404 Ry =     1.910 eV   (provided you have a proper k-mesh)
         Bandranges (emin - emax) and occupancy:
:BAN00009:   9   -0.210076   -0.132630  2.00000000
:BAN00010:  10   -0.170194    0.063079  2.00000000
:BAN00011:  11   -0.095931    0.074215  2.00000000
:BAN00012:  12    0.005133    0.074215  2.00000000
:BAN00013:  13    0.028752    0.130808  2.00000000
:BAN00014:  14    0.048215    0.130808  2.00000000
:BAN00015:  15    0.221823    0.314153  2.00000000
:BAN00016:  16    0.321198    0.337843  2.00000000
:BAN00017:  17    0.327078    0.361672  2.00000000
:BAN00018:  18    0.345905    0.376116  2.00000000
:BAN00019:  19    0.356868    0.434315  2.00000000
:BAN00020:  20    0.574730    0.755195  0.00000000
:BAN00021:  21    0.769083    1.093504  0.00000000
:BAN00022:  22    0.951026    1.126735  0.00000000
:BAN00023:  23    1.109820    1.346291  0.00000000
:BAN00024:  24    1.223594    1.491822  0.00000000
        Energy to separate low and high energystates:   -0.26008


:NOE  : NUMBER OF ELECTRONS          =  38.000

:FER  : F E R M I - ENERGY(TETRAH.M.)=   0.4343150839
:GMA  : POTENTIAL AND CHARGE CUT-OFF  14.00 Ry**.5




:POS001: ATOM   -1 X,Y,Z = 0.00000 0.00000 0.00000  MULT= 1  ZZ= 29.000  Cu1       

       LMMAX  7
       LM=   0 0  2 0  4 0  4 3  6 0  6 3  6 6

:CHA001: TOTAL VALENCE CHARGE INSIDE SPHERE   1 =  15.4452    (RMT=  2.0000 )
:PCS001: PARTIAL CHARGES SPHERE =  1 S,P,D,F,PZ,PXY, D-Z2,D-XY,X2Y2,D-XZ,YZ 
:QTL001: 0.2105 6.1185 9.0928 0.0173 2.0923 4.0262 0.0000 1.6658 3.6778 3.7492 0.0000 0.0000
        Q-s-low E-s-low   Q-p-low E-p-low   Q-d-low E-d-low   Q-f-low E-f-low
:EPL001:  0.0133 -1.0834    5.9995 -4.6255    0.0169 -1.0817    0.0027 -1.0845
        Q-s-hi  E-s-hi    Q-p-hi  E-p-hi    Q-d-hi  E-d-hi    Q-f-hi  E-f-hi 
:EPH001:  0.1972  0.1296    0.1190  0.0492    9.0760  0.3276    0.0146  0.0219
:VZZ001: EFG INSIDE SPHERE   1 =    -4.938811      UP TO R =   2.00000




:POS002: ATOM   -2 X,Y,Z = 0.50000 0.50000 0.50000  MULT= 1  ZZ= 13.000  Al1       

       LMMAX  7
       LM=   0 0  2 0  4 0  4 3  6 0  6 3  6 6

:CHA002: TOTAL VALENCE CHARGE INSIDE SPHERE   2 =   6.5275    (RMT=  1.8000 )
:PCS002: PARTIAL CHARGES SPHERE =  2 S,P,D,F,PZ,PXY, D-Z2,D-XY,X2Y2,D-XZ,YZ 
:QTL002: 0.1866 6.2050 0.1119 0.0194 2.0584 4.1467 0.0000 0.0082 0.0480 0.0557 0.0000 0.0000
        Q-s-low E-s-low   Q-p-low E-p-low   Q-d-low E-d-low   Q-f-low E-f-low
:EPL002:  0.0301 -1.1404    6.0063 -4.0808    0.0154 -1.0580    0.0030 -1.0781
        Q-s-hi  E-s-hi    Q-p-hi  E-p-hi    Q-d-hi  E-d-hi    Q-f-hi  E-f-hi 
:EPH002:  0.1565 -0.1213    0.1988 -0.0231    0.0965  0.0272    0.0164  0.0439
:VZZ002: EFG INSIDE SPHERE   2 =     0.963776      UP TO R =   1.80000




:POS003: ATOM   -3 X,Y,Z = 0.10979 0.10979 0.10979  MULT= 2  ZZ=  8.000  O 1       

       LMMAX 12
       LM=   0 0  1 0  2 0  3 0  3 3  4 0  4 3  5 0  5 3  6 0  6 3  6 6

:CHA003: TOTAL VALENCE CHARGE INSIDE SPHERE   3 =   4.9703    (RMT=  1.4000 )
:PCS003: PARTIAL CHARGES SPHERE =  3 S,P,D,F,PZ,PXY, D-Z2,D-XY,X2Y2,D-XZ,YZ 
:QTL003: 1.4249 3.5379 0.0065 0.0007 1.1542 2.3837 0.0000 0.0015 0.0009 0.0041 0.0000 0.0000
        Q-s-low E-s-low   Q-p-low E-p-low   Q-d-low E-d-low   Q-f-low E-f-low
:EPL003:  1.3832 -1.0828    0.0064 -1.2766    0.0002 -2.6628    0.0001 -2.4521
        Q-s-hi  E-s-hi    Q-p-hi  E-p-hi    Q-d-hi  E-d-hi    Q-f-hi  E-f-hi 
:EPH003:  0.0418 -0.0608    3.5315  0.0050    0.0063  0.1868    0.0006  0.2352
:VZZ003: EFG INSIDE SPHERE   3 =     2.617708      UP TO R =   1.40000

:CHA  : TOTAL VALENCE CHARGE INSIDE UNIT CELL =      38.000000

:SUM  : SUM OF EIGENVALUES =         -53.570441781


        1.ATOM      Cu1                   5 CORE STATES
:1S 001: 1S                -649.705865726 Ry
:2S 001: 2S                 -77.430370283 Ry
:2PP001: 2P*                -67.744503370 Ry
:2P 001: 2P                 -66.238581847 Ry
:3S 001: 3S                  -7.770425654 Ry

        2.ATOM      Al1                   2 CORE STATES
:1S 002: 1S                -110.024724397 Ry
:2S 002: 2S                  -6.929891283 Ry

        3.ATOM      O 1                   1 CORE STATES
       CORE-FORCE in mRy/a.u. = |F|      Fx             Fy             Fz
:FCO003:   3.ATOM    160.097805719      0.000000000      0.000000000    160.097805719

:1S 003: 1S                 -36.977029661 Ry
 :WARNING: K-list has changed
:CINT001 Core Integral Atom   1   11.998557
:CINT002 Core Integral Atom   2    3.995890
:CINT003 Core Integral Atom   3    1.999999

       DENSITY AT NUCLEUS
        JATOM        VALENCE       SEMI-CORE          CORE           TOTAL
:RTO001:   1        5.898190        0.000000    22630.787821    22636.686012
:RTO002:   2        2.335306        0.000000     1486.726618     1489.061925
:RTO003:   3       15.607819        0.000000      303.968862      319.576680
     
       CHARGES OF NEW CHARGE DENSITY
:NTO   : INTERSTITIAL CHARGE =     6.086750
:NTO001: CHARGE SPHERE  1    =    27.443797
:NTO002: CHARGE SPHERE  2    =    10.523386
:NTO003: CHARGE SPHERE  3    =     6.970249

:NEC01: NUCLEAR AND ELECTRONIC CHARGE     58.00000    57.99443
     
       CHARGES OF OLD CHARGE DENSITY
:OTO   : INTERSTITIAL CHARGE =     7.173177
:OTO001: CHARGE SPHERE  1    =    27.282985
:OTO002: CHARGE SPHERE  2    =    10.843492
:OTO003: CHARGE SPHERE  3    =     6.350577

:NEC02: NUCLEAR AND ELECTRONIC CHARGE     58.00000    58.00081
     
       CONVERGENCE TEST
:DTO001: DIFFERENCE IN SPHERE  1 =  0.5878976
:DTO002: DIFFERENCE IN SPHERE  2 =  0.2964987
:DTO003: DIFFERENCE IN SPHERE  3 =  0.7902026

:DIS  :  CHARGE DISTANCE       ( 0.7902026 for atom    3 spin 1)      0.6162004
:BIG check (qbig,qrms,qtot)    0.263D+00   0.459D+00   0.616D+00
 
******************************************************
* MULTISECANT MIXING VER6 RELEASE 6.0 OPTIONS        *
* Standard Mode with controls                        *
* Regularization       1.000E-06                     *
* Trust Region Control Active                        *
* Max Number of Memory Steps    8                    *
******************************************************
 
:PLANE:  INTERSTITIAL TOTAL      1.68241 DISTAN  3.228E+01 % 
:CHARG:  CLM CHARGE   /ATOM     54.20733 DISTAN  1.747E+00 % 
:REDuction and DMIX in Broyd:    0.7900    0.1580
:DIRM :  MEMORY  0/ 8 RESCALES   1.00
:MIX  :   PRATT  REGULARIZATION: 1.00E-06  GREED: 0.035
     
       CHARGES OF MIXED CHARGE DENSITY
:CTO   : INTERSTITIAL CHARGE =     7.134567
:CTO001: CHARGE SPHERE  1    =    27.288614
:CTO002: CHARGE SPHERE  2    =    10.832288
:CTO003: CHARGE SPHERE  3    =     6.372266

:NEC03: NUCLEAR AND ELECTRONIC CHARGE     58.00000    58.00000

PW CHANGE     H    K    L       Current     Change     Residue
:PTO001:      0    0    0  6.80278330E-02  1.289E-04  3.684E-03
:PTO002:     -1   -1   -1 -1.78980875E-02 -1.501E-04 -4.288E-03
:PTO003:     -2   -2   -2 -2.16697731E-03 -1.047E-04 -2.992E-03
:PTO004:     -1    0    0  1.10563659E-01  1.265E-03  3.614E-02
:PTO005:     -1   -1    0  6.61991994E-02  5.325E-04  1.521E-02
:PTO006:     -2   -1   -1 -5.21401866E-02 -8.718E-04 -2.491E-02
:PTO007:     -2   -2   -1 -6.44505177E-02 -9.483E-04 -2.710E-02
:PTO008:     -3   -3   -3  2.98915797E-02  4.165E-04  1.190E-02
:PTO009:     -3   -2   -2  1.83360071E-02  3.036E-04  8.674E-03
:PTO010:     -3   -3   -2  5.33592590E-02  8.944E-04  2.555E-02
:PTO011:     -1    0    1  4.67593395E-02  6.509E-04  1.860E-02
:PTO012:     -4   -4   -4 -2.20344448E-03 -5.200E-05 -1.486E-03

:ENE  : ********** TOTAL ENERGY IN Ry =        -4097.22819465

       TOTAL FORCE IN mRy/a.u. = |F|     Fx             Fy             Fz     with/without FOR in case.in2
:FOR001:   1.ATOM          0.000          0.000          0.000          0.000 partial forces
:FOR002:   2.ATOM          0.000          0.000          0.000          0.000 partial forces
:FOR003:   3.ATOM        472.482          0.000          0.000       -472.482 partial forces
       TOTAL FORCE WITH RESPECT TO GLOBAL CARTESIAN COORDINATES:
:FCA001:   1.ATOM                         0.000          0.000          0.000 partial forces
:FCA002:   2.ATOM                         0.000          0.000          0.000 partial forces
:FCA003:   3.ATOM                         0.000          0.000       -472.482 partial forces
       TOTAL FORCE WITH RESPECT TO THE GLOBAL COORDINATE SYSTEM:
:FGL001:   1.ATOM                 0.000000000     0.000000000     0.000000000 partial forces
:FGL002:   2.ATOM                 0.000000000     0.000000000     0.000000000 partial forces
:FGL003:   3.ATOM              -472.482097580  -472.482097580  -472.482097580 partial forces


            ---------
:ITE002:  2. ITERATION
            ---------

:NATO :    3 INDEPENDENT AND    4 TOTAL ATOMS IN UNITCELL
       SUBSTANCE: CuAlO2 BenkoF84                                             

       LATTICE                      = R   
:POT  : POTENTIAL OPTION EX_PBE EC_PBE VX_PBE VC_PBE
:LAT  : LATTICE CONSTANTS=  5.40508  5.40508 32.03482
:VOL  : UNIT CELL VOLUME =     270.16967
       MODE OF CALCULATION IS       = RELA
       NON-SPINPOLARIZED CALCULATION
:IFFT  : FFT-parameters:   90   90   90 Factor: 2.00
       ATOMNUMBER=  1 Cu1        VCOUL-ZERO =  0.40296E+00
:EFG001:                        EFG         =    -0.04339   *10**21  V / m**2
                               V20  TOT/SRF=    -0.03758     0.31483
                               V22  TOT/SRF=     0.00000     0.00000
                               V22M TOT/SRF=     0.00000     0.00000
                               V21  TOT/SRF=     0.00000     0.00000
                               V21M TOT/SRF=     0.00000     0.00000

              0.02170    0.00000    0.00000        0.02170    0.00000    0.00000
              0.00000    0.02170    0.00000        0.00000    0.02170    0.00000
              0.00000    0.00000   -0.04339        0.00000    0.00000   -0.04339

         MAIN DIRECTIONS OF THE EFG   1.0000  0.0000  0.0000
                                      0.0000  1.0000  0.0000
                                      0.0000  0.0000  1.0000
:ANG001:  ANGLE WITH OLD X-AXIS =         0.0

:ETA001:                         ASYMM. ETA =     0.00000


       ATOMNUMBER=  2 Al1        VCOUL-ZERO = -0.82050E-01
:EFG002:                        EFG         =    -0.10241   *10**21  V / m**2
                               V20  TOT/SRF=    -0.08869    -0.18533
                               V22  TOT/SRF=     0.00000     0.00000
                               V22M TOT/SRF=     0.00000     0.00000
                               V21  TOT/SRF=     0.00000     0.00000
                               V21M TOT/SRF=     0.00000     0.00000

              0.05120    0.00000    0.00000        0.05120    0.00000    0.00000
              0.00000    0.05120    0.00000        0.00000    0.05120    0.00000
              0.00000    0.00000   -0.10241        0.00000    0.00000   -0.10241

         MAIN DIRECTIONS OF THE EFG   1.0000  0.0000  0.0000
                                      0.0000  1.0000  0.0000
                                      0.0000  0.0000  1.0000
:ANG002:  ANGLE WITH OLD X-AXIS =         0.0

:ETA002:                         ASYMM. ETA =     0.00000


       ATOMNUMBER=  3 O 1        VCOUL-ZERO =  0.29937E-01
:EFG003:                        EFG         =     0.33501   *10**21  V / m**2
                               V20  TOT/SRF=     0.29013     0.27237
                               V22  TOT/SRF=     0.00000     0.00000
                               V22M TOT/SRF=     0.00000     0.00000
                               V21  TOT/SRF=     0.00000     0.00000
                               V21M TOT/SRF=     0.00000     0.00000

             -0.16750    0.00000    0.00000       -0.16750    0.00000    0.00000
              0.00000   -0.16750    0.00000        0.00000   -0.16750    0.00000
              0.00000    0.00000    0.33501        0.00000    0.00000    0.33501

         MAIN DIRECTIONS OF THE EFG   1.0000  0.0000  0.0000
                                      0.0000  1.0000  0.0000
                                      0.0000  0.0000  1.0000
:ANG003:  ANGLE WITH OLD X-AXIS =         0.0

:ETA003:                         ASYMM. ETA =     0.00000


     HELLMANN-FEYNMAN-FORCE IN mRy/a.u. = |F|  Fx       Fy             Fz
:FHF001:   1.ATOM      0.000000000      0.000000000      0.000000000      0.000000000

     HELLMANN-FEYNMAN-FORCE IN mRy/a.u. = |F|  Fx       Fy             Fz
:FHF002:   2.ATOM      0.000000000      0.000000000      0.000000000      0.000000000

     HELLMANN-FEYNMAN-FORCE IN mRy/a.u. = |F|  Fx       Fy             Fz
:FHF003:   3.ATOM    597.317418080      0.000000000      0.000000000   -597.317418080

:FIT001: LUSE= 13 SIGMA OF V-XC FIT FOR ATOM  1  0.7540737E-02
:FIT001: LUSE= 13 SIGMA OF V-XC FIT FOR ATOM  1  0.7540737E-02
:FIT002: LUSE= 13 SIGMA OF V-XC FIT FOR ATOM  2  0.4803464E-02
:FIT002: LUSE= 13 SIGMA OF V-XC FIT FOR ATOM  2  0.4803464E-02
:FIT003: LUSE= 13 SIGMA OF V-XC FIT FOR ATOM  3  0.5257229E-04
:FIT003: LUSE= 13 SIGMA OF V-XC FIT FOR ATOM  3  0.5257229E-04
:DEN  : DENSITY INTEGRAL  =         -1792.26829641   (Ry)
       ELS_POTENTIAL_AT Z=0 and Z=0.5:   0.00000   0.00000
       ELS_POTENTIAL_AT Y=0 and Y=0.5:   0.00000   0.00000
:VZERO:v0,v0c,v0x  -0.82884   0.00000  -0.82884 v5,v5c,v5x  -0.82884   0.00000  -0.82884
:VZERY:v0,v0c,v0x  -0.82884   0.00000  -0.82884 v5,v5c,v5x  -0.82884   0.00000  -0.82884
:VZERX:v0,v0c,v0x  -2.46372  -1.24227  -1.22144 v5,v5c,v5x  -0.01822   0.43126  -0.44949

          ATOMIC SPHERE DEPENDENT PARAMETERS FOR ATOM  Cu1       
:e__0001: OVERALL ENERGY PARAMETER IS    0.2507
          OVERALL BASIS SET ON ATOM IS LAPW
:E1_0001: E( 1)=    0.2507
             APW+lo
:E1_0001: E( 1)=   -4.6379   E(BOTTOM)=   -4.703   E(TOP)=   -4.572  1  2   170
             LOCAL ORBITAL
:E2_0001: E( 2)=    0.2965   E(BOTTOM)=   -0.024   E(TOP)=    0.617  0  1   135
             APW+lo
:E0_0001: E( 0)=    0.2507
             APW+lo

          ATOMIC SPHERE DEPENDENT PARAMETERS FOR ATOM  Al1       
:e__0002: OVERALL ENERGY PARAMETER IS    0.2507
          OVERALL BASIS SET ON ATOM IS LAPW
:E1_0002: E( 1)=    0.2507
             APW+lo
:E1_0002: E( 1)=   -4.1307   E(BOTTOM)=   -4.236   E(TOP)=   -4.025  0  1   165
             LOCAL ORBITAL
:E0_0002: E( 0)=    0.2507
             APW+lo

          ATOMIC SPHERE DEPENDENT PARAMETERS FOR ATOM  O 1       
:e__0003: OVERALL ENERGY PARAMETER IS    0.2507
          OVERALL BASIS SET ON ATOM IS LAPW
:E0_0003: E( 0)=   -1.5500   E(BOTTOM)=   -2.772   E(TOP)= -200.000  1 -1   242
             APW+lo
:E0_0003: E( 0)=    0.6507
             LOCAL ORBITAL
:E1_0003: E( 1)=    0.2507
             APW+lo

       K=   0.00000   0.00000   0.00000            1
:RKM  : MATRIX SIZE  1268LOs:  29  RKM= 8.99  WEIGHT= 1.00  PGR:    
       EIGENVALUES ARE:
:EIG00001:      -4.6296603   -4.6203274   -4.6203274   -4.1056360   -4.1056360
:EIG00006:      -4.1014877   -1.1796134   -1.0397089   -0.1975076    0.0804469
:EIG00011:       0.0804469    0.0845241    0.1494702    0.1494702    0.2242935
:EIG00016:       0.3347826    0.3347826    0.3711740    0.3711740    0.5832196
:EIG00021:       0.9093048    0.9597768    1.3486491    1.4929165    1.4929165
:EIG00026:       1.5638738    1.5909662    1.5909662    1.9058979
       ********************************************************

:KPT   :      NUMBER OF K-POINTS:    13
       Insulator, EF-inconsistency corrected
:GAP  :    0.1386 Ry =     1.885 eV   (provided you have a proper k-mesh)
         Bandranges (emin - emax) and occupancy:
:BAN00009:   9   -0.197508   -0.118348  2.00000000
:BAN00010:  10   -0.156797    0.080447  2.00000000
:BAN00011:  11   -0.081926    0.092186  2.00000000
:BAN00012:  12    0.021292    0.092186  2.00000000
:BAN00013:  13    0.045020    0.149470  2.00000000
:BAN00014:  14    0.064763    0.149470  2.00000000
:BAN00015:  15    0.224293    0.321403  2.00000000
:BAN00016:  16    0.329866    0.344514  2.00000000
:BAN00017:  17    0.334783    0.371727  2.00000000
:BAN00018:  18    0.355172    0.384677  2.00000000
:BAN00019:  19    0.366387    0.444633  2.00000000
:BAN00020:  20    0.583220    0.757408  0.00000000
:BAN00021:  21    0.775733    1.094507  0.00000000
:BAN00022:  22    0.959777    1.132824  0.00000000
:BAN00023:  23    1.112522    1.348649  0.00000000
:BAN00024:  24    1.229853    1.495475  0.00000000
        Energy to separate low and high energystates:   -0.24751


:NOE  : NUMBER OF ELECTRONS          =  38.000

:FER  : F E R M I - ENERGY(TETRAH.M.)=   0.4446334313
:GMA  : POTENTIAL AND CHARGE CUT-OFF  14.00 Ry**.5




:POS001: ATOM   -1 X,Y,Z = 0.00000 0.00000 0.00000  MULT= 1  ZZ= 29.000  Cu1       

       LMMAX  7
       LM=   0 0  2 0  4 0  4 3  6 0  6 3  6 6

:CHA001: TOTAL VALENCE CHARGE INSIDE SPHERE   1 =  15.4315    (RMT=  2.0000 )
:PCS001: PARTIAL CHARGES SPHERE =  1 S,P,D,F,PZ,PXY, D-Z2,D-XY,X2Y2,D-XZ,YZ 
:QTL001: 0.2175 6.1218 9.0687 0.0173 2.0938 4.0280 0.0000 1.6524 3.6708 3.7456 0.0000 0.0000
        Q-s-low E-s-low   Q-p-low E-p-low   Q-d-low E-d-low   Q-f-low E-f-low
:EPL001:  0.0136 -1.0657    5.9996 -4.6145    0.0171 -1.0640    0.0027 -1.0660
        Q-s-hi  E-s-hi    Q-p-hi  E-p-hi    Q-d-hi  E-d-hi    Q-f-hi  E-f-hi 
:EPH001:  0.2039  0.1410    0.1222  0.0651    9.0516  0.3357    0.0147  0.0389
:VZZ001: EFG INSIDE SPHERE   1 =    -4.830368      UP TO R =   2.00000




:POS002: ATOM   -2 X,Y,Z = 0.50000 0.50000 0.50000  MULT= 1  ZZ= 13.000  Al1       

       LMMAX  7
       LM=   0 0  2 0  4 0  4 3  6 0  6 3  6 6

:CHA002: TOTAL VALENCE CHARGE INSIDE SPHERE   2 =   6.5383    (RMT=  1.8000 )
:PCS002: PARTIAL CHARGES SPHERE =  2 S,P,D,F,PZ,PXY, D-Z2,D-XY,X2Y2,D-XZ,YZ 
:QTL002: 0.1905 6.2100 0.1137 0.0195 2.0600 4.1499 0.0000 0.0083 0.0488 0.0566 0.0000 0.0000
        Q-s-low E-s-low   Q-p-low E-p-low   Q-d-low E-d-low   Q-f-low E-f-low
:EPL002:  0.0308 -1.1235    6.0070 -4.0858    0.0155 -1.0399    0.0030 -1.0602
        Q-s-hi  E-s-hi    Q-p-hi  E-p-hi    Q-d-hi  E-d-hi    Q-f-hi  E-f-hi 
:EPH002:  0.1597 -0.1072    0.2030 -0.0072    0.0982  0.0438    0.0165  0.0605
:VZZ002: EFG INSIDE SPHERE   2 =     0.989373      UP TO R =   1.80000




:POS003: ATOM   -3 X,Y,Z = 0.10979 0.10979 0.10979  MULT= 2  ZZ=  8.000  O 1       

       LMMAX 12
       LM=   0 0  1 0  2 0  3 0  3 3  4 0  4 3  5 0  5 3  6 0  6 3  6 6

:CHA003: TOTAL VALENCE CHARGE INSIDE SPHERE   3 =   4.9350    (RMT=  1.4000 )
:PCS003: PARTIAL CHARGES SPHERE =  3 S,P,D,F,PZ,PXY, D-Z2,D-XY,X2Y2,D-XZ,YZ 
:QTL003: 1.4206 3.5069 0.0066 0.0007 1.1430 2.3639 0.0000 0.0015 0.0010 0.0041 0.0000 0.0000
        Q-s-low E-s-low   Q-p-low E-p-low   Q-d-low E-d-low   Q-f-low E-f-low
:EPL003:  1.3779 -1.0651    0.0063 -1.2617    0.0002 -2.6378    0.0001 -2.4304
        Q-s-hi  E-s-hi    Q-p-hi  E-p-hi    Q-d-hi  E-d-hi    Q-f-hi  E-f-hi 
:EPH003:  0.0427 -0.0473    3.5006  0.0214    0.0063  0.1975    0.0006  0.2448
:VZZ003: EFG INSIDE SPHERE   3 =     2.678112      UP TO R =   1.40000

:CHA  : TOTAL VALENCE CHARGE INSIDE UNIT CELL =      38.000000

:SUM  : SUM OF EIGENVALUES =         -53.198987518


        1.ATOM      Cu1                   5 CORE STATES
:1S 001: 1S                -649.686545641 Ry
:2S 001: 2S                 -77.410877280 Ry
:2PP001: 2P*                -67.724852730 Ry
:2P 001: 2P                 -66.218948300 Ry
:3S 001: 3S                  -7.758984723 Ry

        2.ATOM      Al1                   2 CORE STATES
:1S 002: 1S                -110.033307270 Ry
:2S 002: 2S                  -6.935265770 Ry

        3.ATOM      O 1                   1 CORE STATES
       CORE-FORCE in mRy/a.u. = |F|      Fx             Fy             Fz
:FCO003:   3.ATOM    152.514957373      0.000000000      0.000000000    152.514957373

:1S 003: 1S                 -36.937805845 Ry
:CINT001 Core Integral Atom   1   11.998548
:CINT002 Core Integral Atom   2    3.995903
:CINT003 Core Integral Atom   3    1.999999

       DENSITY AT NUCLEUS
        JATOM        VALENCE       SEMI-CORE          CORE           TOTAL
:RTO001:   1        6.113325        0.000000    22630.580256    22636.693581
:RTO002:   2        2.389428        0.000000     1486.759756     1489.149184
:RTO003:   3       15.519387        0.000000      303.953964      319.473350
     
       CHARGES OF NEW CHARGE DENSITY
:NTO   : INTERSTITIAL CHARGE =     6.160170
:NTO001: CHARGE SPHERE  1    =    27.430040
:NTO002: CHARGE SPHERE  2    =    10.534172
:NTO003: CHARGE SPHERE  3    =     6.935027

:NEC01: NUCLEAR AND ELECTRONIC CHARGE     58.00000    57.99444
     
       CHARGES OF OLD CHARGE DENSITY
:OTO   : INTERSTITIAL CHARGE =     7.134567
:OTO001: CHARGE SPHERE  1    =    27.288614
:OTO002: CHARGE SPHERE  2    =    10.832288
:OTO003: CHARGE SPHERE  3    =     6.372266

:NEC02: NUCLEAR AND ELECTRONIC CHARGE     58.00000    58.00000
     
       CONVERGENCE TEST
:DTO001: DIFFERENCE IN SPHERE  1 =  0.4995398
:DTO002: DIFFERENCE IN SPHERE  2 =  0.2755550
:DTO003: DIFFERENCE IN SPHERE  3 =  0.7099520

:DIS  :  CHARGE DISTANCE       ( 0.7099520 for atom    3 spin 1)      0.5487497
:BIG check (qbig,qrms,qtot)    0.237D+00   0.408D+00   0.549D+00
 
******************************************************
* MULTISECANT MIXING VER6 RELEASE 6.0 OPTIONS        *
* Standard Mode with controls                        *
* Regularization       1.000E-06                     *
* Trust Region Control Active                        *
* Max Number of Memory Steps    8                    *
******************************************************
 
:PLANE:  INTERSTITIAL TOTAL      1.69646 DISTAN  3.029E+01 % 
:CHARG:  CLM CHARGE   /ATOM     54.21355 DISTAN  1.585E+00 % 
:REDuction and DMIX in Broyd:    0.8277    0.1655
 
 Step History DMIX, Red, Pred, Trust, FRMS, FABS
  2  3.5000E-02  1.0000E+00  1.0000E+00  1.0000E+00
  
:DIRM :  MEMORY  1/ 8 RESCALES   5.12
:MIX  :   PRATT  REGULARIZATION: 1.00E-06  GREED: 0.088  Expand 2.50  0.09                
     
       CHARGES OF MIXED CHARGE DENSITY
:CTO   : INTERSTITIAL CHARGE =     7.040062
:CTO001: CHARGE SPHERE  1    =    27.302685
:CTO002: CHARGE SPHERE  2    =    10.804279
:CTO003: CHARGE SPHERE  3    =     6.426487

:NEC03: NUCLEAR AND ELECTRONIC CHARGE     58.00000    58.00000

PW CHANGE     H    K    L       Current     Change     Residue
:PTO001:      0    0    0  6.83501826E-02  3.223E-04  3.751E-03
:PTO002:     -1   -1   -1 -1.82732687E-02 -3.752E-04 -3.949E-03
:PTO003:     -2   -2   -2 -2.42877488E-03 -2.618E-04 -2.723E-03
:PTO004:     -1    0    0  1.13726020E-01  3.162E-03  3.409E-02
:PTO005:     -1   -1    0  6.75304761E-02  1.331E-03  1.442E-02
:PTO006:     -2   -1   -1 -5.43196050E-02 -2.179E-03 -2.355E-02
:PTO007:     -2   -2   -1 -6.68213735E-02 -2.371E-03 -2.563E-02
:PTO008:     -3   -3   -3  3.09327103E-02  1.041E-03  1.124E-02
:PTO009:     -3   -2   -2  1.90950185E-02  7.590E-04  8.133E-03
:PTO010:     -3   -3   -2  5.55952446E-02  2.236E-03  2.397E-02
:PTO011:     -1    0    1  4.83865426E-02  1.627E-03  1.718E-02
:PTO012:     -4   -4   -4 -2.33344084E-03 -1.300E-04 -1.462E-03

:ENE  : ********** TOTAL ENERGY IN Ry =        -4097.19396734

       TOTAL FORCE IN mRy/a.u. = |F|     Fx             Fy             Fz     with/without FOR in case.in2
:FOR001:   1.ATOM          0.000          0.000          0.000          0.000 partial forces
:FOR002:   2.ATOM          0.000          0.000          0.000          0.000 partial forces
:FOR003:   3.ATOM        444.802          0.000          0.000       -444.802 partial forces
       TOTAL FORCE WITH RESPECT TO GLOBAL CARTESIAN COORDINATES:
:FCA001:   1.ATOM                         0.000          0.000          0.000 partial forces
:FCA002:   2.ATOM                         0.000          0.000          0.000 partial forces
:FCA003:   3.ATOM                         0.000          0.000       -444.802 partial forces
       TOTAL FORCE WITH RESPECT TO THE GLOBAL COORDINATE SYSTEM:
:FGL001:   1.ATOM                 0.000000000     0.000000000     0.000000000 partial forces
:FGL002:   2.ATOM                 0.000000000     0.000000000     0.000000000 partial forces
:FGL003:   3.ATOM              -444.802460707  -444.802460707  -444.802460707 partial forces


            ---------
:ITE003:  3. ITERATION
            ---------

:NATO :    3 INDEPENDENT AND    4 TOTAL ATOMS IN UNITCELL
       SUBSTANCE: CuAlO2 BenkoF84                                             

       LATTICE                      = R   
:POT  : POTENTIAL OPTION EX_PBE EC_PBE VX_PBE VC_PBE
:LAT  : LATTICE CONSTANTS=  5.40508  5.40508 32.03482
:VOL  : UNIT CELL VOLUME =     270.16967
       MODE OF CALCULATION IS       = RELA
       NON-SPINPOLARIZED CALCULATION
:IFFT  : FFT-parameters:   90   90   90 Factor: 2.00
       ATOMNUMBER=  1 Cu1        VCOUL-ZERO =  0.39265E+00
:EFG001:                        EFG         =    -0.49729   *10**21  V / m**2
                               V20  TOT/SRF=    -0.43067     0.27023
                               V22  TOT/SRF=     0.00000     0.00000
                               V22M TOT/SRF=     0.00000     0.00000
                               V21  TOT/SRF=     0.00000     0.00000
                               V21M TOT/SRF=     0.00000     0.00000

              0.24865    0.00000    0.00000        0.24865    0.00000    0.00000
              0.00000    0.24865    0.00000        0.00000    0.24865    0.00000
              0.00000    0.00000   -0.49729        0.00000    0.00000   -0.49729

         MAIN DIRECTIONS OF THE EFG   1.0000  0.0000  0.0000
                                      0.0000  1.0000  0.0000
                                      0.0000  0.0000  1.0000
:ANG001:  ANGLE WITH OLD X-AXIS =         0.0

:ETA001:                         ASYMM. ETA =     0.00000


       ATOMNUMBER=  2 Al1        VCOUL-ZERO = -0.80931E-01
:EFG002:                        EFG         =     0.00055   *10**21  V / m**2
                               V20  TOT/SRF=     0.00048    -0.15759
                               V22  TOT/SRF=     0.00000     0.00000
                               V22M TOT/SRF=     0.00000     0.00000
                               V21  TOT/SRF=     0.00000     0.00000
                               V21M TOT/SRF=     0.00000     0.00000

             -0.00027    0.00000    0.00000       -0.00027    0.00000    0.00000
              0.00000   -0.00027    0.00000        0.00000   -0.00027    0.00000
              0.00000    0.00000    0.00055        0.00000    0.00000    0.00055

         MAIN DIRECTIONS OF THE EFG   1.0000  0.0000  0.0000
                                      0.0000  1.0000  0.0000
                                      0.0000  0.0000  1.0000
:ANG002:  ANGLE WITH OLD X-AXIS =         0.0

:ETA002:                         ASYMM. ETA =     0.00000


       ATOMNUMBER=  3 O 1        VCOUL-ZERO =  0.62393E-01
:EFG003:                        EFG         =     0.56689   *10**21  V / m**2
                               V20  TOT/SRF=     0.49094     0.26866
                               V22  TOT/SRF=     0.00000     0.00000
                               V22M TOT/SRF=     0.00000     0.00000
                               V21  TOT/SRF=     0.00000     0.00000
                               V21M TOT/SRF=     0.00000     0.00000

             -0.28344    0.00000    0.00000       -0.28344    0.00000    0.00000
              0.00000   -0.28344    0.00000        0.00000   -0.28344    0.00000
              0.00000    0.00000    0.56689        0.00000    0.00000    0.56689

         MAIN DIRECTIONS OF THE EFG   1.0000  0.0000  0.0000
                                      0.0000  1.0000  0.0000
                                      0.0000  0.0000  1.0000
:ANG003:  ANGLE WITH OLD X-AXIS =         0.0

:ETA003:                         ASYMM. ETA =     0.00000


     HELLMANN-FEYNMAN-FORCE IN mRy/a.u. = |F|  Fx       Fy             Fz
:FHF001:   1.ATOM      0.000000000      0.000000000      0.000000000      0.000000000

     HELLMANN-FEYNMAN-FORCE IN mRy/a.u. = |F|  Fx       Fy             Fz
:FHF002:   2.ATOM      0.000000000      0.000000000      0.000000000      0.000000000

     HELLMANN-FEYNMAN-FORCE IN mRy/a.u. = |F|  Fx       Fy             Fz
:FHF003:   3.ATOM    508.455140896      0.000000000      0.000000000   -508.455140896

:FIT001: LUSE= 13 SIGMA OF V-XC FIT FOR ATOM  1  0.7436493E-02
:FIT001: LUSE= 13 SIGMA OF V-XC FIT FOR ATOM  1  0.7436493E-02
:FIT002: LUSE= 13 SIGMA OF V-XC FIT FOR ATOM  2  0.4767222E-02
:FIT002: LUSE= 13 SIGMA OF V-XC FIT FOR ATOM  2  0.4767222E-02
:FIT003: LUSE= 13 SIGMA OF V-XC FIT FOR ATOM  3  0.6322800E-04
:FIT003: LUSE= 13 SIGMA OF V-XC FIT FOR ATOM  3  0.6322800E-04
:DEN  : DENSITY INTEGRAL  =         -1793.99162028   (Ry)
       ELS_POTENTIAL_AT Z=0 and Z=0.5:   0.00000   0.00000
       ELS_POTENTIAL_AT Y=0 and Y=0.5:   0.00000   0.00000
:VZERO:v0,v0c,v0x  -0.82541   0.00000  -0.82541 v5,v5c,v5x  -0.82541   0.00000  -0.82541
:VZERY:v0,v0c,v0x  -0.82541   0.00000  -0.82541 v5,v5c,v5x  -0.82541   0.00000  -0.82541
:VZERX:v0,v0c,v0x  -2.43930  -1.21288  -1.22642 v5,v5c,v5x  -0.03770   0.39843  -0.43613

          ATOMIC SPHERE DEPENDENT PARAMETERS FOR ATOM  Cu1       
:e__0001: OVERALL ENERGY PARAMETER IS    0.2462
          OVERALL BASIS SET ON ATOM IS LAPW
:E1_0001: E( 1)=    0.2462
             APW+lo
:E1_0001: E( 1)=   -4.6112   E(BOTTOM)=   -4.678   E(TOP)=   -4.545  1  2   170
             LOCAL ORBITAL
:E2_0001: E( 2)=    0.3178   E(BOTTOM)=   -0.008   E(TOP)=    0.644  0  1   129
             APW+lo
:E0_0001: E( 0)=    0.2462
             APW+lo

          ATOMIC SPHERE DEPENDENT PARAMETERS FOR ATOM  Al1       
:e__0002: OVERALL ENERGY PARAMETER IS    0.2462
          OVERALL BASIS SET ON ATOM IS LAPW
:E1_0002: E( 1)=    0.2462
             APW+lo
:E1_0002: E( 1)=   -4.1440   E(BOTTOM)=   -4.249   E(TOP)=   -4.039  0  1   166
             LOCAL ORBITAL
:E0_0002: E( 0)=    0.2462
             APW+lo

          ATOMIC SPHERE DEPENDENT PARAMETERS FOR ATOM  O 1       
:e__0003: OVERALL ENERGY PARAMETER IS    0.2462
          OVERALL BASIS SET ON ATOM IS LAPW
:E0_0003: E( 0)=   -1.5500   E(BOTTOM)=   -2.721   E(TOP)= -200.000  1 -1   236
             APW+lo
:E0_0003: E( 0)=    0.6462
             LOCAL ORBITAL
:E1_0003: E( 1)=    0.2462
             APW+lo

       K=   0.00000   0.00000   0.00000            1
:RKM  : MATRIX SIZE  1268LOs:  29  RKM= 8.99  WEIGHT= 1.00  PGR:    
       EIGENVALUES ARE:
:EIG00001:      -4.6017632   -4.5938162   -4.5938162   -4.1188003   -4.1188003
:EIG00006:      -4.1156178   -1.1396522   -0.9955024   -0.1666752    0.1236619
:EIG00011:       0.1236619    0.1277093    0.1961490    0.1961490    0.2299371
:EIG00016:       0.3537414    0.3537414    0.3954055    0.3954055    0.6051950
:EIG00021:       0.9218485    0.9818121    1.3547095    1.5019557    1.5019557
:EIG00026:       1.5807883    1.6020524    1.6020524    1.9019100
       ********************************************************

:KPT   :      NUMBER OF K-POINTS:    13
       Insulator, EF-inconsistency corrected
:GAP  :    0.1350 Ry =     1.837 eV   (provided you have a proper k-mesh)
         Bandranges (emin - emax) and occupancy:
:BAN00009:   9   -0.166675   -0.082918  2.00000000
:BAN00010:  10   -0.123636    0.123662  2.00000000
:BAN00011:  11   -0.047284    0.137118  2.00000000
:BAN00012:  12    0.061453    0.137118  2.00000000
:BAN00013:  13    0.085389    0.196149  2.00000000
:BAN00014:  14    0.105741    0.196149  2.00000000
:BAN00015:  15    0.229937    0.339243  2.00000000
:BAN00016:  16    0.351355    0.363470  2.00000000
:BAN00017:  17    0.353741    0.397055  2.00000000
:BAN00018:  18    0.378243    0.405849  2.00000000
:BAN00019:  19    0.390143    0.470151  2.00000000
:BAN00020:  20    0.605195    0.763619  0.00000000
:BAN00021:  21    0.792536    1.096904  0.00000000
:BAN00022:  22    0.981812    1.149317  0.00000000
:BAN00023:  23    1.119304    1.357912  0.00000000
:BAN00024:  24    1.246282    1.504825  0.00000000
        Energy to separate low and high energystates:   -0.21668


:NOE  : NUMBER OF ELECTRONS          =  38.000

:FER  : F E R M I - ENERGY(TETRAH.M.)=   0.4701509694
:GMA  : POTENTIAL AND CHARGE CUT-OFF  14.00 Ry**.5




:POS001: ATOM   -1 X,Y,Z = 0.00000 0.00000 0.00000  MULT= 1  ZZ= 29.000  Cu1       

       LMMAX  7
       LM=   0 0  2 0  4 0  4 3  6 0  6 3  6 6

:CHA001: TOTAL VALENCE CHARGE INSIDE SPHERE   1 =  15.3972    (RMT=  2.0000 )
:PCS001: PARTIAL CHARGES SPHERE =  1 S,P,D,F,PZ,PXY, D-Z2,D-XY,X2Y2,D-XZ,YZ 
:QTL001: 0.2352 6.1307 9.0078 0.0175 2.0979 4.0328 0.0000 1.6186 3.6529 3.7362 0.0000 0.0000
        Q-s-low E-s-low   Q-p-low E-p-low   Q-d-low E-d-low   Q-f-low E-f-low
:EPL001:  0.0144 -1.0214    6.0000 -4.5871    0.0178 -1.0195    0.0027 -1.0197
        Q-s-hi  E-s-hi    Q-p-hi  E-p-hi    Q-d-hi  E-d-hi    Q-f-hi  E-f-hi 
:EPH001:  0.2207  0.1680    0.1307  0.1042    8.9900  0.3556    0.0148  0.0813
:VZZ001: EFG INSIDE SPHERE   1 =    -4.571138      UP TO R =   2.00000




:POS002: ATOM   -2 X,Y,Z = 0.50000 0.50000 0.50000  MULT= 1  ZZ= 13.000  Al1       

       LMMAX  7
       LM=   0 0  2 0  4 0  4 3  6 0  6 3  6 6

:CHA002: TOTAL VALENCE CHARGE INSIDE SPHERE   2 =   6.5658    (RMT=  1.8000 )
:PCS002: PARTIAL CHARGES SPHERE =  2 S,P,D,F,PZ,PXY, D-Z2,D-XY,X2Y2,D-XZ,YZ 
:QTL002: 0.2004 6.2227 0.1185 0.0198 2.0644 4.1583 0.0000 0.0087 0.0506 0.0591 0.0000 0.0000
        Q-s-low E-s-low   Q-p-low E-p-low   Q-d-low E-d-low   Q-f-low E-f-low
:EPL002:  0.0324 -1.0812    6.0089 -4.0982    0.0159 -0.9946    0.0030 -1.0152
        Q-s-hi  E-s-hi    Q-p-hi  E-p-hi    Q-d-hi  E-d-hi    Q-f-hi  E-f-hi 
:EPH002:  0.1680 -0.0720    0.2138  0.0325    0.1025  0.0852    0.0168  0.1018
:VZZ002: EFG INSIDE SPHERE   2 =     1.045167      UP TO R =   1.80000




:POS003: ATOM   -3 X,Y,Z = 0.10979 0.10979 0.10979  MULT= 2  ZZ=  8.000  O 1       

       LMMAX 12
       LM=   0 0  1 0  2 0  3 0  3 3  4 0  4 3  5 0  5 3  6 0  6 3  6 6

:CHA003: TOTAL VALENCE CHARGE INSIDE SPHERE   3 =   4.8452    (RMT=  1.4000 )
:PCS003: PARTIAL CHARGES SPHERE =  3 S,P,D,F,PZ,PXY, D-Z2,D-XY,X2Y2,D-XZ,YZ 
:QTL003: 1.4096 3.4279 0.0067 0.0007 1.1146 2.3134 0.0000 0.0015 0.0010 0.0042 0.0000 0.0000
        Q-s-low E-s-low   Q-p-low E-p-low   Q-d-low E-d-low   Q-f-low E-f-low
:EPL003:  1.3642 -1.0207    0.0061 -1.2246    0.0003 -2.5746    0.0001 -2.3748
        Q-s-hi  E-s-hi    Q-p-hi  E-p-hi    Q-d-hi  E-d-hi    Q-f-hi  E-f-hi 
:EPH003:  0.0454 -0.0135    3.4219  0.0622    0.0065  0.2243    0.0006  0.2688
:VZZ003: EFG INSIDE SPHERE   3 =     2.839630      UP TO R =   1.40000

:CHA  : TOTAL VALENCE CHARGE INSIDE UNIT CELL =      38.000000

:SUM  : SUM OF EIGENVALUES =         -52.276007660


        1.ATOM      Cu1                   5 CORE STATES
:1S 001: 1S                -649.638348724 Ry
:2S 001: 2S                 -77.362247728 Ry
:2PP001: 2P*                -67.675829191 Ry
:2P 001: 2P                 -66.169967489 Ry
:3S 001: 3S                  -7.730499010 Ry

        2.ATOM      Al1                   2 CORE STATES
:1S 002: 1S                -110.054575034 Ry
:2S 002: 2S                  -6.948511295 Ry

        3.ATOM      O 1                   1 CORE STATES
       CORE-FORCE in mRy/a.u. = |F|      Fx             Fy             Fz
:FCO003:   3.ATOM    133.381781348      0.000000000      0.000000000    133.381781348

:1S 003: 1S                 -36.839301390 Ry
:CINT001 Core Integral Atom   1   11.998525
:CINT002 Core Integral Atom   2    3.995936
:CINT003 Core Integral Atom   3    1.999999

       DENSITY AT NUCLEUS
        JATOM        VALENCE       SEMI-CORE          CORE           TOTAL
:RTO001:   1        6.655127        0.000000    22630.060665    22636.715793
:RTO002:   2        2.520090        0.000000     1486.842609     1489.362700
:RTO003:   3       15.296761        0.000000      303.916729      319.213490
     
       CHARGES OF NEW CHARGE DENSITY
:NTO   : INTERSTITIAL CHARGE =     6.346556
:NTO001: CHARGE SPHERE  1    =    27.395683
:NTO002: CHARGE SPHERE  2    =    10.561785
:NTO003: CHARGE SPHERE  3    =     6.845211

:NEC01: NUCLEAR AND ELECTRONIC CHARGE     58.00000    57.99445
     
       CHARGES OF OLD CHARGE DENSITY
:OTO   : INTERSTITIAL CHARGE =     7.040062
:OTO001: CHARGE SPHERE  1    =    27.302685
:OTO002: CHARGE SPHERE  2    =    10.804279
:OTO003: CHARGE SPHERE  3    =     6.426487

:NEC02: NUCLEAR AND ELECTRONIC CHARGE     58.00000    58.00000
     
       CONVERGENCE TEST
:DTO001: DIFFERENCE IN SPHERE  1 =  0.2954238
:DTO002: DIFFERENCE IN SPHERE  2 =  0.2244231
:DTO003: DIFFERENCE IN SPHERE  3 =  0.5098271

:DIS  :  CHARGE DISTANCE       ( 0.5098271 for atom    3 spin 1)      0.3848753
:BIG check (qbig,qrms,qtot)    0.170D+00   0.287D+00   0.385D+00
 
******************************************************
* MULTISECANT MIXING VER6 RELEASE 6.0 OPTIONS        *
* Standard Mode with controls                        *
* Regularization       1.000E-06                     *
* Trust Region Control Active                        *
* Max Number of Memory Steps    8                    *
******************************************************
 
:PLANE:  INTERSTITIAL TOTAL      1.73200 DISTAN  2.538E+01 % 
:CHARG:  CLM CHARGE   /ATOM     54.22919 DISTAN  1.197E+00 % 
:REDuction and DMIX in Broyd:    0.9305    0.1861
 
 Step History DMIX, Red, Pred, Trust, FRMS, FABS
  2  3.5000E-02  1.0000E+00  1.0000E+00  1.0000E+00
  3  8.7500E-02  1.0000E+00  1.0000E+00  1.0000E+00
  
:NORMS:  Nuclear, Spectral, Froebius, Shanno-Pua   0.2475E+01  0.2450E+01  0.2450E+01  0.3636E+00
:INFO :  Number of Memory Steps    2 Skipping    0
:INFO :  SLambda=    2.4753382  Max    2.4753382

Eigenvalues, unscaled except for SY+YY
   #     SY Real        SY Imag          SS             YY         SY+YY Real      SY+YY Imag
   1   7.272135E-01   0.000000E+00   3.331986E-01   1.999784E+00   3.799884E+00   0.000000E+00
   2   7.771561E-16   0.000000E+00   8.326673E-17   2.164206E-04   2.154266E-04   0.000000E+00
 
:INFO :  Singular value   3.800E+00 Weight  1.0000E+00 Projections   3.729E+00  1.927E+00
:INFO :  Singular value   2.154E-04 Weight  9.9991E-01 Projections  -6.451E+00 -7.198E+00
 
:DIRM :  MEMORY 2/8 RESCALE   4.88 RED 0.806 PRED 1.000 NEXT 0.624
:INFO :  Blimit    1.537E+00  1.010E+00  6.463E-01  2.612E+00
:DIRP :  |MSR1|= 8.445E-01 |PRATT|= 2.146E+00 ANGLE=   1.2 DEGREES
:DIRQ :  |MSR1|= 7.896E-01 |PRATT|= 1.948E+00 ANGLE=   2.6 DEGREES
:DIR  :  |MSR1|= 1.156E+00 |PRATT|= 2.898E+00 ANGLE=   2.2 DEGREES
:MIX  :   MSE1   REGULARIZATION: 2.00E-06  GREED: 0.097  Newton 1.00  0.40                
     
       CHARGES OF MIXED CHARGE DENSITY
:CTO   : INTERSTITIAL CHARGE =     6.755515
:CTO001: CHARGE SPHERE  1    =    27.342117
:CTO002: CHARGE SPHERE  2    =    10.707493
:CTO003: CHARGE SPHERE  3    =     6.597437

:NEC03: NUCLEAR AND ELECTRONIC CHARGE     58.00000    58.00000

PW CHANGE     H    K    L       Current     Change     Residue
:PTO001:      0    0    0  6.98619481E-02  1.512E-03  3.981E-03
:PTO002:     -1   -1   -1 -1.94294564E-02 -1.156E-03 -2.924E-03
:PTO003:     -2   -2   -2 -3.16884796E-03 -7.401E-04 -1.870E-03
:PTO004:     -1    0    0  1.25290868E-01  1.156E-02  2.917E-02
:PTO005:     -1   -1    0  7.26144867E-02  5.084E-03  1.278E-02
:PTO006:     -2   -1   -1 -6.20101898E-02 -7.691E-03 -1.966E-02
:PTO007:     -2   -2   -1 -7.52487590E-02 -8.427E-03 -2.152E-02
:PTO008:     -3   -3   -3  3.47746334E-02  3.842E-03  9.691E-03
:PTO009:     -3   -2   -2  2.19616808E-02  2.867E-03  7.103E-03
:PTO010:     -3   -3   -2  6.36966205E-02  8.101E-03  2.029E-02
:PTO011:     -1    0    1  5.39593926E-02  5.573E-03  1.379E-02
:PTO012:     -4   -4   -4 -2.79677690E-03 -4.633E-04 -1.262E-03

:ENE  : ********** TOTAL ENERGY IN Ry =        -4097.12472542

       TOTAL FORCE IN mRy/a.u. = |F|     Fx             Fy             Fz     with/without FOR in case.in2
:FOR001:   1.ATOM          0.000          0.000          0.000          0.000 partial forces
:FOR002:   2.ATOM          0.000          0.000          0.000          0.000 partial forces
:FOR003:   3.ATOM        375.073          0.000          0.000       -375.073 partial forces
       TOTAL FORCE WITH RESPECT TO GLOBAL CARTESIAN COORDINATES:
:FCA001:   1.ATOM                         0.000          0.000          0.000 partial forces
:FCA002:   2.ATOM                         0.000          0.000          0.000 partial forces
:FCA003:   3.ATOM                         0.000          0.000       -375.073 partial forces
       TOTAL FORCE WITH RESPECT TO THE GLOBAL COORDINATE SYSTEM:
:FGL001:   1.ATOM                 0.000000000     0.000000000     0.000000000 partial forces
:FGL002:   2.ATOM                 0.000000000     0.000000000     0.000000000 partial forces
:FGL003:   3.ATOM              -375.073359548  -375.073359548  -375.073359548 partial forces


            ---------
:ITE004:  4. ITERATION
            ---------

:NATO :    3 INDEPENDENT AND    4 TOTAL ATOMS IN UNITCELL
       SUBSTANCE: CuAlO2 BenkoF84                                             

       LATTICE                      = R   
:POT  : POTENTIAL OPTION EX_PBE EC_PBE VX_PBE VC_PBE
:LAT  : LATTICE CONSTANTS=  5.40508  5.40508 32.03482
:VOL  : UNIT CELL VOLUME =     270.16967
       MODE OF CALCULATION IS       = RELA
       NON-SPINPOLARIZED CALCULATION
:IFFT  : FFT-parameters:   90   90   90 Factor: 2.00
       ATOMNUMBER=  1 Cu1        VCOUL-ZERO =  0.36155E+00
:EFG001:                        EFG         =    -2.11272   *10**21  V / m**2
                               V20  TOT/SRF=    -1.82967     0.13316
                               V22  TOT/SRF=     0.00000     0.00000
                               V22M TOT/SRF=     0.00000     0.00000
                               V21  TOT/SRF=     0.00000     0.00000
                               V21M TOT/SRF=     0.00000     0.00000

              1.05636    0.00000    0.00000        1.05636    0.00000    0.00000
              0.00000    1.05636    0.00000        0.00000    1.05636    0.00000
              0.00000    0.00000   -2.11272        0.00000    0.00000   -2.11272

         MAIN DIRECTIONS OF THE EFG   1.0000  0.0000  0.0000
                                      0.0000  1.0000  0.0000
                                      0.0000  0.0000  1.0000
:ANG001:  ANGLE WITH OLD X-AXIS =         0.0

:ETA001:                         ASYMM. ETA =     0.00000


       ATOMNUMBER=  2 Al1        VCOUL-ZERO = -0.75650E-01
:EFG002:                        EFG         =     0.41074   *10**21  V / m**2
                               V20  TOT/SRF=     0.35572    -0.06326
                               V22  TOT/SRF=     0.00000     0.00000
                               V22M TOT/SRF=     0.00000     0.00000
                               V21  TOT/SRF=     0.00000     0.00000
                               V21M TOT/SRF=     0.00000     0.00000

             -0.20537    0.00000    0.00000       -0.20537    0.00000    0.00000
              0.00000   -0.20537    0.00000        0.00000   -0.20537    0.00000
              0.00000    0.00000    0.41074        0.00000    0.00000    0.41074

         MAIN DIRECTIONS OF THE EFG   1.0000  0.0000  0.0000
                                      0.0000  1.0000  0.0000
                                      0.0000  0.0000  1.0000
:ANG002:  ANGLE WITH OLD X-AXIS =         0.0

:ETA002:                         ASYMM. ETA =     0.00000


       ATOMNUMBER=  3 O 1        VCOUL-ZERO =  0.17085E+00
:EFG003:                        EFG         =     1.55345   *10**21  V / m**2
                               V20  TOT/SRF=     1.34533     0.26312
                               V22  TOT/SRF=     0.00000     0.00000
                               V22M TOT/SRF=     0.00000     0.00000
                               V21  TOT/SRF=     0.00000     0.00000
                               V21M TOT/SRF=     0.00000     0.00000

             -0.77672    0.00000    0.00000       -0.77672    0.00000    0.00000
              0.00000   -0.77672    0.00000        0.00000   -0.77672    0.00000
              0.00000    0.00000    1.55345        0.00000    0.00000    1.55345

         MAIN DIRECTIONS OF THE EFG   1.0000  0.0000  0.0000
                                      0.0000  1.0000  0.0000
                                      0.0000  0.0000  1.0000
:ANG003:  ANGLE WITH OLD X-AXIS =         0.0

:ETA003:                         ASYMM. ETA =     0.00000


     HELLMANN-FEYNMAN-FORCE IN mRy/a.u. = |F|  Fx       Fy             Fz
:FHF001:   1.ATOM      0.000000000      0.000000000      0.000000000      0.000000000

     HELLMANN-FEYNMAN-FORCE IN mRy/a.u. = |F|  Fx       Fy             Fz
:FHF002:   2.ATOM      0.000000000      0.000000000      0.000000000      0.000000000

     HELLMANN-FEYNMAN-FORCE IN mRy/a.u. = |F|  Fx       Fy             Fz
:FHF003:   3.ATOM    185.393040921      0.000000000      0.000000000   -185.393040921

:FIT001: LUSE= 13 SIGMA OF V-XC FIT FOR ATOM  1  0.6922107E-02
:FIT001: LUSE= 13 SIGMA OF V-XC FIT FOR ATOM  1  0.6922107E-02
:FIT002: LUSE= 13 SIGMA OF V-XC FIT FOR ATOM  2  0.4605300E-02
:FIT002: LUSE= 13 SIGMA OF V-XC FIT FOR ATOM  2  0.4605300E-02
:FIT003: LUSE= 13 SIGMA OF V-XC FIT FOR ATOM  3  0.1127072E-03
:FIT003: LUSE= 13 SIGMA OF V-XC FIT FOR ATOM  3  0.1127072E-03
:DEN  : DENSITY INTEGRAL  =         -1798.49077204   (Ry)
       ELS_POTENTIAL_AT Z=0 and Z=0.5:   0.00000   0.00000
       ELS_POTENTIAL_AT Y=0 and Y=0.5:   0.00000   0.00000
:VZERO:v0,v0c,v0x  -0.81334   0.00000  -0.81334 v5,v5c,v5x  -0.81334   0.00000  -0.81334
:VZERY:v0,v0c,v0x  -0.81334   0.00000  -0.81334 v5,v5c,v5x  -0.81334   0.00000  -0.81334
:VZERX:v0,v0c,v0x  -2.37331  -1.12883  -1.24448 v5,v5c,v5x  -0.09180   0.29609  -0.38789

          ATOMIC SPHERE DEPENDENT PARAMETERS FOR ATOM  Cu1       
:e__0001: OVERALL ENERGY PARAMETER IS    0.2702
          OVERALL BASIS SET ON ATOM IS LAPW
:E1_0001: E( 1)=    0.2702
             APW+lo
:E1_0001: E( 1)=   -4.5520   E(BOTTOM)=   -4.621   E(TOP)=   -4.483  1  2   177
             LOCAL ORBITAL
:E2_0001: E( 2)=    0.3639   E(BOTTOM)=    0.026   E(TOP)=    0.702  0  1   134
             APW+lo
:E0_0001: E( 0)=    0.2702
             APW+lo

          ATOMIC SPHERE DEPENDENT PARAMETERS FOR ATOM  Al1       
:e__0002: OVERALL ENERGY PARAMETER IS    0.2702
          OVERALL BASIS SET ON ATOM IS LAPW
:E1_0002: E( 1)=    0.2702
             APW+lo
:E1_0002: E( 1)=   -4.1864   E(BOTTOM)=   -4.289   E(TOP)=   -4.084  0  1   159
             LOCAL ORBITAL
:E0_0002: E( 0)=    0.2702
             APW+lo

          ATOMIC SPHERE DEPENDENT PARAMETERS FOR ATOM  O 1       
:e__0003: OVERALL ENERGY PARAMETER IS    0.2702
          OVERALL BASIS SET ON ATOM IS LAPW
:E0_0003: E( 0)=   -1.5500   E(BOTTOM)=   -2.559   E(TOP)= -200.000  1 -1   228
             APW+lo
:E0_0003: E( 0)=    0.6702
             LOCAL ORBITAL
:E1_0003: E( 1)=    0.2702
             APW+lo

       K=   0.00000   0.00000   0.00000            1
:RKM  : MATRIX SIZE  1268LOs:  29  RKM= 8.99  WEIGHT= 1.00  PGR:    
       EIGENVALUES ARE:
:EIG00001:      -4.5402222   -4.5349167   -4.5349167   -4.1607562   -4.1606514
:EIG00006:      -4.1606514   -1.0154112   -0.8580974   -0.0782674    0.2382242
:EIG00011:       0.2530090    0.2530090    0.2593948    0.3409257    0.3409257
:EIG00016:       0.3932146    0.3932146    0.4549913    0.4549913    0.6691461
:EIG00021:       0.9673918    1.0516496    1.3776586    1.5340288    1.5340288
:EIG00026:       1.6395789    1.6395789    1.6419958    1.8910214    1.9687038
:EIG00031:       1.9687038
       ********************************************************

:KPT   :      NUMBER OF K-POINTS:    13
       Insulator, EF-inconsistency corrected
:GAP  :    0.1394 Ry =     1.896 eV   (provided you have a proper k-mesh)
         Bandranges (emin - emax) and occupancy:
:BAN00009:   9   -0.078267    0.023380  2.00000000
:BAN00010:  10   -0.024598    0.238224  2.00000000
:BAN00011:  11    0.056081    0.258670  2.00000000
:BAN00012:  12    0.176996    0.276590  2.00000000
:BAN00013:  13    0.200630    0.290562  2.00000000
:BAN00014:  14    0.226624    0.340926  2.00000000
:BAN00015:  15    0.301985    0.378445  2.00000000
:BAN00016:  16    0.393134    0.418226  2.00000000
:BAN00017:  17    0.393215    0.451171  2.00000000
:BAN00018:  18    0.426153    0.472119  2.00000000
:BAN00019:  19    0.447080    0.529737  2.00000000
:BAN00020:  20    0.669146    0.794807  0.00000000
:BAN00021:  21    0.848196    1.102572  0.00000000
:BAN00022:  22    1.044494    1.229948  0.00000000
:BAN00023:  23    1.144904    1.421025  0.00000000
:BAN00024:  24    1.287542    1.537944  0.00000000
        Energy to separate low and high energystates:   -0.12827


:NOE  : NUMBER OF ELECTRONS          =  38.000

:FER  : F E R M I - ENERGY(TETRAH.M.)=   0.5297365332
:GMA  : POTENTIAL AND CHARGE CUT-OFF  14.00 Ry**.5




:POS001: ATOM   -1 X,Y,Z = 0.00000 0.00000 0.00000  MULT= 1  ZZ= 29.000  Cu1       

       LMMAX  7
       LM=   0 0  2 0  4 0  4 3  6 0  6 3  6 6

:CHA001: TOTAL VALENCE CHARGE INSIDE SPHERE   1 =  15.3470    (RMT=  2.0000 )
:PCS001: PARTIAL CHARGES SPHERE =  1 S,P,D,F,PZ,PXY, D-Z2,D-XY,X2Y2,D-XZ,YZ 
:QTL001: 0.2876 6.1610 8.8748 0.0179 2.1121 4.0489 0.0000 1.5477 3.6113 3.7159 0.0000 0.0000
        Q-s-low E-s-low   Q-p-low E-p-low   Q-d-low E-d-low   Q-f-low E-f-low
:EPL001:  0.0177 -0.8833    6.0016 -4.5257    0.0204 -0.8807    0.0028 -0.8761
        Q-s-hi  E-s-hi    Q-p-hi  E-p-hi    Q-d-hi  E-d-hi    Q-f-hi  E-f-hi 
:EPH001:  0.2699  0.2361    0.1593  0.2116    8.8545  0.3983    0.0152  0.2082
:VZZ001: EFG INSIDE SPHERE   1 =    -5.207185      UP TO R =   2.00000




:POS002: ATOM   -2 X,Y,Z = 0.50000 0.50000 0.50000  MULT= 1  ZZ= 13.000  Al1       

       LMMAX  7
       LM=   0 0  2 0  4 0  4 3  6 0  6 3  6 6

:CHA002: TOTAL VALENCE CHARGE INSIDE SPHERE   2 =   6.6554    (RMT=  1.8000 )
:PCS002: PARTIAL CHARGES SPHERE =  2 S,P,D,F,PZ,PXY, D-Z2,D-XY,X2Y2,D-XZ,YZ 
:QTL002: 0.2322 6.2648 0.1336 0.0205 2.0793 4.1854 0.0000 0.0100 0.0564 0.0672 0.0000 0.0000
        Q-s-low E-s-low   Q-p-low E-p-low   Q-d-low E-d-low   Q-f-low E-f-low
:EPL002:  0.0380 -0.9492    6.0150 -4.1373    0.0171 -0.8529    0.0030 -0.8752
        Q-s-hi  E-s-hi    Q-p-hi  E-p-hi    Q-d-hi  E-d-hi    Q-f-hi  E-f-hi 
:EPH002:  0.1942  0.0346    0.2498  0.1543    0.1165  0.2122    0.0175  0.2276
:VZZ002: EFG INSIDE SPHERE   2 =     1.168826      UP TO R =   1.80000




:POS003: ATOM   -3 X,Y,Z = 0.10979 0.10979 0.10979  MULT= 2  ZZ=  8.000  O 1       

       LMMAX 12
       LM=   0 0  1 0  2 0  3 0  3 3  4 0  4 3  5 0  5 3  6 0  6 3  6 6

:CHA003: TOTAL VALENCE CHARGE INSIDE SPHERE   3 =   4.5523    (RMT=  1.4000 )
:PCS003: PARTIAL CHARGES SPHERE =  3 S,P,D,F,PZ,PXY, D-Z2,D-XY,X2Y2,D-XZ,YZ 
:QTL003: 1.3741 3.1700 0.0072 0.0008 1.0201 2.1499 0.0000 0.0015 0.0013 0.0044 0.0000 0.0000
        Q-s-low E-s-low   Q-p-low E-p-low   Q-d-low E-d-low   Q-f-low E-f-low
:EPL003:  1.3191 -0.8823    0.0053 -1.1097    0.0003 -2.3621    0.0001 -2.1948
        Q-s-hi  E-s-hi    Q-p-hi  E-p-hi    Q-d-hi  E-d-hi    Q-f-hi  E-f-hi 
:EPH003:  0.0550  0.0913    3.1647  0.1873    0.0069  0.2963    0.0007  0.3306
:VZZ003: EFG INSIDE SPHERE   3 =     3.464871      UP TO R =   1.40000

:CHA  : TOTAL VALENCE CHARGE INSIDE UNIT CELL =      38.000000

:SUM  : SUM OF EIGENVALUES =         -49.782100478


        1.ATOM      Cu1                   5 CORE STATES
:1S 001: 1S                -649.547624702 Ry
:2S 001: 2S                 -77.262159166 Ry
:2PP001: 2P*                -67.575994833 Ry
:2P 001: 2P                 -66.070102412 Ry
:3S 001: 3S                  -7.667095248 Ry

        2.ATOM      Al1                   2 CORE STATES
:1S 002: 1S                -110.120742570 Ry
:2S 002: 2S                  -6.990874206 Ry

        3.ATOM      O 1                   1 CORE STATES
       CORE-FORCE in mRy/a.u. = |F|      Fx             Fy             Fz
:FCO003:   3.ATOM     59.415096477      0.000000000      0.000000000     59.415096477

:1S 003: 1S                 -36.542930127 Ry
:CINT001 Core Integral Atom   1   11.998469
:CINT002 Core Integral Atom   2    3.996046
:CINT003 Core Integral Atom   3    1.999999

       DENSITY AT NUCLEUS
        JATOM        VALENCE       SEMI-CORE          CORE           TOTAL
:RTO001:   1        8.274930        0.000000    22629.128238    22637.403168
:RTO002:   2        2.940352        0.000000     1487.104078     1490.044430
:RTO003:   3       14.605696        0.000000      303.833566      318.439262
     
       CHARGES OF NEW CHARGE DENSITY
:NTO   : INTERSTITIAL CHARGE =     6.892963
:NTO001: CHARGE SPHERE  1    =    27.345452
:NTO002: CHARGE SPHERE  2    =    10.651482
:NTO003: CHARGE SPHERE  3    =     6.552302

:NEC01: NUCLEAR AND ELECTRONIC CHARGE     58.00000    57.99450
     
       CHARGES OF OLD CHARGE DENSITY
:OTO   : INTERSTITIAL CHARGE =     6.755515
:OTO001: CHARGE SPHERE  1    =    27.342117
:OTO002: CHARGE SPHERE  2    =    10.707493
:OTO003: CHARGE SPHERE  3    =     6.597437

:NEC02: NUCLEAR AND ELECTRONIC CHARGE     58.00000    58.00000
     
       CONVERGENCE TEST
:DTO001: DIFFERENCE IN SPHERE  1 =  0.3379402
:DTO002: DIFFERENCE IN SPHERE  2 =  0.0927280
:DTO003: DIFFERENCE IN SPHERE  3 =  0.2498555

:DIS  :  CHARGE DISTANCE       ( 0.3379402 for atom    1 spin 1)      0.2325948
:BIG check (qbig,qrms,qtot)    0.113D+00   0.176D+00   0.233D+00
 
******************************************************
* MULTISECANT MIXING VER6 RELEASE 6.0 OPTIONS        *
* Standard Mode with controls                        *
* Regularization       1.000E-06                     *
* Trust Region Control Active                        *
* Max Number of Memory Steps    8                    *
******************************************************
 
:PLANE:  INTERSTITIAL TOTAL      1.86793 DISTAN  1.039E+01 % 
:CHARG:  CLM CHARGE   /ATOM     54.26552 DISTAN  6.575E-01 % 
 
 Step History DMIX, Red, Pred, Trust, FRMS, FABS
  2  3.5000E-02  1.0000E+00  1.0000E+00  1.0000E+00
  3  8.7500E-02  8.0584E-01  1.0000E+00  1.0000E+00
  4  9.6939E-02  1.0000E+00  6.2403E-01  2.6119E+00
  
:NORMS:  Nuclear, Spectral, Froebius, Shanno-Pua   0.2227E+01  0.2212E+01  0.2212E+01  0.4012E+00
:INFO :  Number of Memory Steps    3 Skipping    0
:INFO :  SLambda=    2.2273386  Max    2.2273386

Eigenvalues, unscaled except for SY+YY
   #     SY Real        SY Imag          SS             YY         SY+YY Real      SY+YY Imag
   1   1.203000E+00   0.000000E+00   6.130134E-01   2.998348E+00   5.677771E+00   0.000000E+00
   2   1.398772E-16   0.000000E+00  -1.094766E-16   1.616686E-05   1.638181E-05   0.000000E+00
   3   5.545764E-04   0.000000E+00   2.082288E-04   1.635781E-03   2.935671E-03   0.000000E+00
 
:INFO :  Singular value   5.678E+00 Weight  1.0000E+00 Projections  -5.545E+00  1.950E-01
:INFO :  Singular value   2.936E-03 Weight  1.0000E+00 Projections   3.952E+01 -3.382E+01
:INFO :  Singular value   1.638E-05 Weight  9.6759E-01 Projections  -3.407E+01  4.012E+01
 
:DIRM :  MEMORY 3/8 RESCALE   5.03 RED 0.492 PRED 0.624 NEXT 0.673
:INFO :  Blimit    2.078E+00  1.007E+00  7.843E-01  3.160E+00
:DIRP :  |MSR1|= 5.294E-01 |PRATT|= 9.766E-01 ANGLE=   5.9 DEGREES
:DIRQ :  |MSR1|= 4.544E-01 |PRATT|= 1.070E+00 ANGLE=  15.3 DEGREES
:DIR  :  |MSR1|= 6.977E-01 |PRATT|= 1.449E+00 ANGLE=  13.4 DEGREES
:MIX  :   MSE1   REGULARIZATION: 3.00E-06  GREED: 0.118  Newton 1.00  0.48                
     
       CHARGES OF MIXED CHARGE DENSITY
:CTO   : INTERSTITIAL CHARGE =     6.770197
:CTO001: CHARGE SPHERE  1    =    27.353649
:CTO002: CHARGE SPHERE  2    =    10.669746
:CTO003: CHARGE SPHERE  3    =     6.603204

:NEC03: NUCLEAR AND ELECTRONIC CHARGE     58.00000    58.00000

PW CHANGE     H    K    L       Current     Change     Residue
:PTO001:      0    0    0  7.17517695E-02  1.890E-03  3.961E-03
:PTO002:     -1   -1   -1 -1.94757847E-02 -4.633E-05  1.943E-04
:PTO003:     -2   -2   -2 -2.96569004E-03  2.032E-04  6.394E-04
:PTO004:     -1    0    0  1.32046182E-01  6.755E-03  1.183E-02
:PTO005:     -1   -1    0  7.64264609E-02  3.812E-03  6.966E-03
:PTO006:     -2   -1   -1 -6.55200843E-02 -3.510E-03 -6.039E-03
:PTO007:     -2   -2   -1 -7.94079591E-02 -4.159E-03 -7.259E-03
:PTO008:     -3   -3   -3  3.71274563E-02  2.353E-03  4.169E-03
:PTO009:     -3   -2   -2  2.39375894E-02  1.976E-03  3.437E-03
:PTO010:     -3   -3   -2  6.82350066E-02  4.538E-03  7.687E-03
:PTO011:     -1    0    1  5.60961489E-02  2.137E-03  2.922E-03
:PTO012:     -4   -4   -4 -3.07411590E-03 -2.773E-04 -5.936E-04

:ENE  : ********** TOTAL ENERGY IN Ry =        -4097.05398412

       TOTAL FORCE IN mRy/a.u. = |F|     Fx             Fy             Fz     with/without FOR in case.in2
:FOR001:   1.ATOM          0.000          0.000          0.000          0.000 partial forces
:FOR002:   2.ATOM          0.000          0.000          0.000          0.000 partial forces
:FOR003:   3.ATOM        125.978          0.000          0.000       -125.978 partial forces
       TOTAL FORCE WITH RESPECT TO GLOBAL CARTESIAN COORDINATES:
:FCA001:   1.ATOM                         0.000          0.000          0.000 partial forces
:FCA002:   2.ATOM                         0.000          0.000          0.000 partial forces
:FCA003:   3.ATOM                         0.000          0.000       -125.978 partial forces
       TOTAL FORCE WITH RESPECT TO THE GLOBAL COORDINATE SYSTEM:
:FGL001:   1.ATOM                 0.000000000     0.000000000     0.000000000 partial forces
:FGL002:   2.ATOM                 0.000000000     0.000000000     0.000000000 partial forces
:FGL003:   3.ATOM              -125.977944444  -125.977944444  -125.977944444 partial forces


            ---------
:ITE005:  5. ITERATION
            ---------

:NATO :    3 INDEPENDENT AND    4 TOTAL ATOMS IN UNITCELL
       SUBSTANCE: CuAlO2 BenkoF84                                             

       LATTICE                      = R   
:POT  : POTENTIAL OPTION EX_PBE EC_PBE VX_PBE VC_PBE
:LAT  : LATTICE CONSTANTS=  5.40508  5.40508 32.03482
:VOL  : UNIT CELL VOLUME =     270.16967
       MODE OF CALCULATION IS       = RELA
       NON-SPINPOLARIZED CALCULATION
:IFFT  : FFT-parameters:   90   90   90 Factor: 2.00
       ATOMNUMBER=  1 Cu1        VCOUL-ZERO =  0.37483E+00
:EFG001:                        EFG         =    -3.63182   *10**21  V / m**2
                               V20  TOT/SRF=    -3.14525     0.14013
                               V22  TOT/SRF=     0.00000     0.00000
                               V22M TOT/SRF=     0.00000     0.00000
                               V21  TOT/SRF=     0.00000     0.00000
                               V21M TOT/SRF=     0.00000     0.00000

              1.81591    0.00000    0.00000        1.81591    0.00000    0.00000
              0.00000    1.81591    0.00000        0.00000    1.81591    0.00000
              0.00000    0.00000   -3.63182        0.00000    0.00000   -3.63182

         MAIN DIRECTIONS OF THE EFG   1.0000  0.0000  0.0000
                                      0.0000  1.0000  0.0000
                                      0.0000  0.0000  1.0000
:ANG001:  ANGLE WITH OLD X-AXIS =         0.0

:ETA001:                         ASYMM. ETA =     0.00000


       ATOMNUMBER=  2 Al1        VCOUL-ZERO = -0.78033E-01
:EFG002:                        EFG         =     0.73308   *10**21  V / m**2
                               V20  TOT/SRF=     0.63487    -0.04296
                               V22  TOT/SRF=     0.00000     0.00000
                               V22M TOT/SRF=     0.00000     0.00000
                               V21  TOT/SRF=     0.00000     0.00000
                               V21M TOT/SRF=     0.00000     0.00000

             -0.36654    0.00000    0.00000       -0.36654    0.00000    0.00000
              0.00000   -0.36654    0.00000        0.00000   -0.36654    0.00000
              0.00000    0.00000    0.73308        0.00000    0.00000    0.73308

         MAIN DIRECTIONS OF THE EFG   1.0000  0.0000  0.0000
                                      0.0000  1.0000  0.0000
                                      0.0000  0.0000  1.0000
:ANG002:  ANGLE WITH OLD X-AXIS =         0.0

:ETA002:                         ASYMM. ETA =     0.00000


       ATOMNUMBER=  3 O 1        VCOUL-ZERO =  0.19341E+00
:EFG003:                        EFG         =     2.65322   *10**21  V / m**2
                               V20  TOT/SRF=     2.29775     0.27758
                               V22  TOT/SRF=     0.00000     0.00000
                               V22M TOT/SRF=     0.00000     0.00000
                               V21  TOT/SRF=     0.00000     0.00000
                               V21M TOT/SRF=     0.00000     0.00000

             -1.32661    0.00000    0.00000       -1.32661    0.00000    0.00000
              0.00000   -1.32661    0.00000        0.00000   -1.32661    0.00000
              0.00000    0.00000    2.65322        0.00000    0.00000    2.65322

         MAIN DIRECTIONS OF THE EFG   1.0000  0.0000  0.0000
                                      0.0000  1.0000  0.0000
                                      0.0000  0.0000  1.0000
:ANG003:  ANGLE WITH OLD X-AXIS =         0.0

:ETA003:                         ASYMM. ETA =     0.00000


     HELLMANN-FEYNMAN-FORCE IN mRy/a.u. = |F|  Fx       Fy             Fz
:FHF001:   1.ATOM      0.000000000      0.000000000      0.000000000      0.000000000

     HELLMANN-FEYNMAN-FORCE IN mRy/a.u. = |F|  Fx       Fy             Fz
:FHF002:   2.ATOM      0.000000000      0.000000000      0.000000000      0.000000000

     HELLMANN-FEYNMAN-FORCE IN mRy/a.u. = |F|  Fx       Fy             Fz
:FHF003:   3.ATOM     53.373421873      0.000000000      0.000000000    -53.373421873

:FIT001: LUSE= 13 SIGMA OF V-XC FIT FOR ATOM  1  0.6777444E-02
:FIT001: LUSE= 13 SIGMA OF V-XC FIT FOR ATOM  1  0.6777444E-02
:FIT002: LUSE= 13 SIGMA OF V-XC FIT FOR ATOM  2  0.5030757E-02
:FIT002: LUSE= 13 SIGMA OF V-XC FIT FOR ATOM  2  0.5030757E-02
:FIT003: LUSE= 13 SIGMA OF V-XC FIT FOR ATOM  3  0.1712413E-03
:FIT003: LUSE= 13 SIGMA OF V-XC FIT FOR ATOM  3  0.1712413E-03
:DEN  : DENSITY INTEGRAL  =         -1796.94549813   (Ry)
       ELS_POTENTIAL_AT Z=0 and Z=0.5:   0.00000   0.00000
       ELS_POTENTIAL_AT Y=0 and Y=0.5:   0.00000   0.00000
:VZERO:v0,v0c,v0x  -0.81171   0.00000  -0.81171 v5,v5c,v5x  -0.81171   0.00000  -0.81171
:VZERY:v0,v0c,v0x  -0.81171   0.00000  -0.81171 v5,v5c,v5x  -0.81171   0.00000  -0.81171
:VZERX:v0,v0c,v0x  -2.40135  -1.14791  -1.25344 v5,v5c,v5x  -0.07485   0.28857  -0.36341

          ATOMIC SPHERE DEPENDENT PARAMETERS FOR ATOM  Cu1       
:e__0001: OVERALL ENERGY PARAMETER IS    0.3297
          OVERALL BASIS SET ON ATOM IS LAPW
:E1_0001: E( 1)=    0.3297
             APW+lo
:E1_0001: E( 1)=   -4.5778   E(BOTTOM)=   -4.645   E(TOP)=   -4.510  1  2   180
             LOCAL ORBITAL
:E2_0001: E( 2)=    0.3448   E(BOTTOM)=    0.013   E(TOP)=    0.676  0  1   134
             APW+lo
:E0_0001: E( 0)=    0.3297
             APW+lo

          ATOMIC SPHERE DEPENDENT PARAMETERS FOR ATOM  Al1       
:e__0002: OVERALL ENERGY PARAMETER IS    0.3297
          OVERALL BASIS SET ON ATOM IS LAPW
:E1_0002: E( 1)=    0.3297
             APW+lo
:E1_0002: E( 1)=   -4.1991   E(BOTTOM)=   -4.301   E(TOP)=   -4.097  0  1   152
             LOCAL ORBITAL
:E0_0002: E( 0)=    0.3297
             APW+lo

          ATOMIC SPHERE DEPENDENT PARAMETERS FOR ATOM  O 1       
:e__0003: OVERALL ENERGY PARAMETER IS    0.3297
          OVERALL BASIS SET ON ATOM IS LAPW
:E0_0003: E( 0)=   -1.5500   E(BOTTOM)=   -2.552   E(TOP)= -200.000  1 -1   232
             APW+lo
:E0_0003: E( 0)=    0.7297
             LOCAL ORBITAL
:E1_0003: E( 1)=    0.3297
             APW+lo

       K=   0.00000   0.00000   0.00000            1
:RKM  : MATRIX SIZE  1268LOs:  29  RKM= 8.99  WEIGHT= 1.00  PGR:    
       EIGENVALUES ARE:
:EIG00001:      -4.5701207   -4.5592461   -4.5592461   -4.1742116   -4.1733174
:EIG00006:      -4.1733174   -1.0097190   -0.8532203   -0.0743363    0.2340870
:EIG00011:       0.2538383    0.2538383    0.2641495    0.3443511    0.3443511
:EIG00016:       0.3776217    0.3776217    0.4378902    0.4378902    0.6600099
:EIG00021:       0.9742817    1.0569758    1.3861167    1.5389750    1.5389750
:EIG00026:       1.6458558    1.6458558    1.6481004    1.9024684    1.9753217
:EIG00031:       1.9753217
       ********************************************************

:KPT   :      NUMBER OF K-POINTS:    13
       Insulator, EF-inconsistency corrected
:GAP  :    0.1481 Ry =     2.014 eV   (provided you have a proper k-mesh)
         Bandranges (emin - emax) and occupancy:
:BAN00009:   9   -0.074336    0.026852  2.00000000
:BAN00010:  10   -0.021335    0.234087  2.00000000
:BAN00011:  11    0.059481    0.253838  2.00000000
:BAN00012:  12    0.177827    0.280398  2.00000000
:BAN00013:  13    0.203708    0.291415  2.00000000
:BAN00014:  14    0.228737    0.344351  2.00000000
:BAN00015:  15    0.299611    0.365503  2.00000000
:BAN00016:  16    0.377622    0.401729  2.00000000
:BAN00017:  17    0.377622    0.433109  2.00000000
:BAN00018:  18    0.409124    0.457763  2.00000000
:BAN00019:  19    0.429483    0.511912  2.00000000
:BAN00020:  20    0.660010    0.788790  0.00000000
:BAN00021:  21    0.856281    1.107507  0.00000000
:BAN00022:  22    1.051895    1.234119  0.00000000
:BAN00023:  23    1.153445    1.427262  0.00000000
:BAN00024:  24    1.293920    1.542629  0.00000000
        Energy to separate low and high energystates:   -0.12434


:NOE  : NUMBER OF ELECTRONS          =  38.000

:FER  : F E R M I - ENERGY(TETRAH.M.)=   0.5119123598
:GMA  : POTENTIAL AND CHARGE CUT-OFF  14.00 Ry**.5




:POS001: ATOM   -1 X,Y,Z = 0.00000 0.00000 0.00000  MULT= 1  ZZ= 29.000  Cu1       

       LMMAX  7
       LM=   0 0  2 0  4 0  4 3  6 0  6 3  6 6

:CHA001: TOTAL VALENCE CHARGE INSIDE SPHERE   1 =  15.4168    (RMT=  2.0000 )
:PCS001: PARTIAL CHARGES SPHERE =  1 S,P,D,F,PZ,PXY, D-Z2,D-XY,X2Y2,D-XZ,YZ 
:QTL001: 0.2807 6.1570 8.9556 0.0179 2.1118 4.0452 0.0000 1.5913 3.6333 3.7311 0.0000 0.0000
        Q-s-low E-s-low   Q-p-low E-p-low   Q-d-low E-d-low   Q-f-low E-f-low
:EPL001:  0.0178 -0.8782    6.0022 -4.5517    0.0208 -0.8756    0.0028 -0.8717
        Q-s-hi  E-s-hi    Q-p-hi  E-p-hi    Q-d-hi  E-d-hi    Q-f-hi  E-f-hi 
:EPH001:  0.2629  0.2347    0.1548  0.2092    8.9348  0.3811    0.0151  0.2089
:VZZ001: EFG INSIDE SPHERE   1 =    -6.858530      UP TO R =   2.00000




:POS002: ATOM   -2 X,Y,Z = 0.50000 0.50000 0.50000  MULT= 1  ZZ= 13.000  Al1       

       LMMAX  7
       LM=   0 0  2 0  4 0  4 3  6 0  6 3  6 6

:CHA002: TOTAL VALENCE CHARGE INSIDE SPHERE   2 =   6.6560    (RMT=  1.8000 )
:PCS002: PARTIAL CHARGES SPHERE =  2 S,P,D,F,PZ,PXY, D-Z2,D-XY,X2Y2,D-XZ,YZ 
:QTL002: 0.2325 6.2650 0.1336 0.0205 2.0795 4.1855 0.0000 0.0099 0.0563 0.0674 0.0000 0.0000
        Q-s-low E-s-low   Q-p-low E-p-low   Q-d-low E-d-low   Q-f-low E-f-low
:EPL002:  0.0380 -0.9437    6.0151 -4.1502    0.0171 -0.8479    0.0030 -0.8702
        Q-s-hi  E-s-hi    Q-p-hi  E-p-hi    Q-d-hi  E-d-hi    Q-f-hi  E-f-hi 
:EPH002:  0.1945  0.0374    0.2499  0.1577    0.1165  0.2158    0.0175  0.2310
:VZZ002: EFG INSIDE SPHERE   2 =     1.200369      UP TO R =   1.80000




:POS003: ATOM   -3 X,Y,Z = 0.10979 0.10979 0.10979  MULT= 2  ZZ=  8.000  O 1       

       LMMAX 12
       LM=   0 0  1 0  2 0  3 0  3 3  4 0  4 3  5 0  5 3  6 0  6 3  6 6

:CHA003: TOTAL VALENCE CHARGE INSIDE SPHERE   3 =   4.5565    (RMT=  1.4000 )
:PCS003: PARTIAL CHARGES SPHERE =  3 S,P,D,F,PZ,PXY, D-Z2,D-XY,X2Y2,D-XZ,YZ 
:QTL003: 1.3744 3.1741 0.0070 0.0008 1.0216 2.1525 0.0000 0.0015 0.0013 0.0042 0.0000 0.0000
        Q-s-low E-s-low   Q-p-low E-p-low   Q-d-low E-d-low   Q-f-low E-f-low
:EPL003:  1.3199 -0.8772    0.0050 -1.1136    0.0003 -2.3544    0.0001 -2.1846
        Q-s-hi  E-s-hi    Q-p-hi  E-p-hi    Q-d-hi  E-d-hi    Q-f-hi  E-f-hi 
:EPH003:  0.0544  0.0958    3.1691  0.1910    0.0067  0.2859    0.0007  0.3180
:VZZ003: EFG INSIDE SPHERE   3 =     3.442600      UP TO R =   1.40000

:CHA  : TOTAL VALENCE CHARGE INSIDE UNIT CELL =      38.000000

:SUM  : SUM OF EIGENVALUES =         -50.111333935


        1.ATOM      Cu1                   5 CORE STATES
:1S 001: 1S                -649.656211921 Ry
:2S 001: 2S                 -77.348759446 Ry
:2PP001: 2P*                -67.666358000 Ry
:2P 001: 2P                 -66.160048038 Ry
:3S 001: 3S                  -7.695322877 Ry

        2.ATOM      Al1                   2 CORE STATES
:1S 002: 1S                -110.129586253 Ry
:2S 002: 2S                  -7.004557164 Ry

        3.ATOM      O 1                   1 CORE STATES
       CORE-FORCE in mRy/a.u. = |F|      Fx             Fy             Fz
:FCO003:   3.ATOM     15.789429145      0.000000000      0.000000000     15.789429145

:1S 003: 1S                 -36.587893124 Ry
:CINT001 Core Integral Atom   1   11.998500
:CINT002 Core Integral Atom   2    3.996074
:CINT003 Core Integral Atom   3    1.999999

       DENSITY AT NUCLEUS
        JATOM        VALENCE       SEMI-CORE          CORE           TOTAL
:RTO001:   1        8.038273        0.000000    22630.662636    22638.700909
:RTO002:   2        2.941448        0.000000     1487.116304     1490.057752
:RTO003:   3       14.632200        0.000000      303.955911      318.588111
     
       CHARGES OF NEW CHARGE DENSITY
:NTO   : INTERSTITIAL CHARGE =     6.814229
:NTO001: CHARGE SPHERE  1    =    27.415325
:NTO002: CHARGE SPHERE  2    =    10.652100
:NTO003: CHARGE SPHERE  3    =     6.556453

:NEC01: NUCLEAR AND ELECTRONIC CHARGE     58.00000    57.99456
     
       CHARGES OF OLD CHARGE DENSITY
:OTO   : INTERSTITIAL CHARGE =     6.770197
:OTO001: CHARGE SPHERE  1    =    27.353649
:OTO002: CHARGE SPHERE  2    =    10.669746
:OTO003: CHARGE SPHERE  3    =     6.603204

:NEC02: NUCLEAR AND ELECTRONIC CHARGE     58.00000    58.00000
     
       CONVERGENCE TEST
:DTO001: DIFFERENCE IN SPHERE  1 =  0.0753383
:DTO002: DIFFERENCE IN SPHERE  2 =  0.0473103
:DTO003: DIFFERENCE IN SPHERE  3 =  0.1435080

:DIS  :  CHARGE DISTANCE       ( 0.1435080 for atom    3 spin 1)      0.1024161
:BIG check (qbig,qrms,qtot)    0.478D-01   0.783D-01   0.102D+00
 
******************************************************
* MULTISECANT MIXING VER6 RELEASE 6.0 OPTIONS        *
* Standard Mode with controls                        *
* Regularization       1.000E-06                     *
* Trust Region Control Active                        *
* Max Number of Memory Steps    8                    *
******************************************************
 
:PLANE:  INTERSTITIAL TOTAL      1.95483 DISTAN  4.518E+00 % 
:CHARG:  CLM CHARGE   /ATOM     54.23458 DISTAN  2.960E-01 % 
 
 Step History DMIX, Red, Pred, Trust, FRMS, FABS
  2  3.5000E-02  1.0000E+00  1.0000E+00  1.0000E+00
  3  8.7500E-02  8.0584E-01  1.0000E+00  1.0000E+00
  4  9.6939E-02  4.9151E-01  6.2403E-01  2.6119E+00
  5  1.1765E-01  1.0000E+00  6.7328E-01  3.1596E+00
  
:NORMS:  Nuclear, Spectral, Froebius, Shanno-Pua   0.1736E+01  0.1434E+01  0.1572E+01  0.5763E+00
:INFO :  Number of Memory Steps    4 Skipping    0
:INFO :  SLambda=    1.7359549  Max    1.7359549

Eigenvalues, unscaled except for SY+YY
   #     SY Real        SY Imag          SS             YY         SY+YY Real      SY+YY Imag
   1   1.897798E+00   0.000000E+00   1.497345E+00   3.080090E+00   6.298550E+00   0.000000E+00
   2   3.466108E-01   0.000000E+00   1.203990E-01   9.197094E-01   1.597415E+00   0.000000E+00
   3  -1.318494E-16   0.000000E+00  -1.542599E-16   1.860352E-04   2.788116E-04   0.000000E+00
   4   3.798524E-05   0.000000E+00   7.928313E-06   1.433062E-05   1.492069E-05   0.000000E+00
 
:INFO :  Singular value   6.299E+00 Weight  1.0000E+00 Projections   4.730E+00  2.098E-01
:INFO :  Singular value   1.597E+00 Weight  1.0000E+00 Projections  -4.221E+01 -4.392E-01
:INFO :  Singular value   2.788E-04 Weight  9.9988E-01 Projections   3.877E+01 -3.612E+01
:INFO :  Singular value   1.492E-05 Weight  9.5913E-01 Projections  -5.030E+00 -4.503E+01
 
:DIRM :  MEMORY 4/8 RESCALE   5.11 RED 0.452 PRED 0.673 NEXT 0.323
:INFO :  Blimit    2.999E+00  1.210E+00  1.000E+00  4.841E+00
:DIRP :  |MSR1|= 5.381E-01 |PRATT|= 4.517E-01 ANGLE=   8.0 DEGREES
:DIRQ :  |MSR1|= 4.158E-01 |PRATT|= 4.815E-01 ANGLE=  32.4 DEGREES
:DIR  :  |MSR1|= 6.800E-01 |PRATT|= 6.602E-01 ANGLE=  24.1 DEGREES
:MIX  :   MSE1   REGULARIZATION: 3.08E-06  GREED: 0.152  Newton 1.00  1.03                
     
       CHARGES OF MIXED CHARGE DENSITY
:CTO   : INTERSTITIAL CHARGE =     6.770305
:CTO001: CHARGE SPHERE  1    =    27.384376
:CTO002: CHARGE SPHERE  2    =    10.633565
:CTO003: CHARGE SPHERE  3    =     6.605877

:NEC03: NUCLEAR AND ELECTRONIC CHARGE     58.00000    58.00000

[...]
:PTO001:      0    0    0  7.34913158E-02 -3.155E-09 -2.436E-09
:PTO002:     -1   -1   -1 -1.97098596E-02 -6.075E-09 -6.785E-09
:PTO003:     -2   -2   -2 -2.85575115E-03 -7.520E-09 -5.745E-09
:PTO004:     -1    0    0  1.38037224E-01 -1.356E-08 -1.053E-08
:PTO005:     -1   -1    0  8.01099620E-02 -1.521E-08 -1.280E-08
:PTO006:     -2   -1   -1 -6.86206336E-02 -1.079E-08 -9.475E-09
:PTO007:     -2   -2   -1 -8.33313942E-02 -8.976E-09 -7.459E-09
:PTO008:     -3   -3   -3  3.92524051E-02 -6.696E-09 -5.658E-09
:PTO009:     -3   -2   -2  2.55618217E-02 -1.393E-08 -9.804E-09
:PTO010:     -3   -3   -2  7.21767625E-02 -1.459E-08 -9.689E-09
:PTO011:     -1    0    1  5.78847567E-02 -3.390E-09  6.433E-10
:PTO012:     -4   -4   -4 -3.28336567E-03 -4.381E-09 -4.245E-09

:ENE  : ********** TOTAL ENERGY IN Ry =        -4097.04837688

       TOTAL FORCE IN mRy/a.u. = |F|     Fx             Fy             Fz     with/without FOR in case.in2
:FOR001:   1.ATOM          0.000          0.000          0.000          0.000 partial forces
:FOR002:   2.ATOM          0.000          0.000          0.000          0.000 partial forces
:FOR003:   3.ATOM          6.055          0.000          0.000         -6.055 partial forces
       TOTAL FORCE WITH RESPECT TO GLOBAL CARTESIAN COORDINATES:
:FCA001:   1.ATOM                         0.000          0.000          0.000 partial forces
:FCA002:   2.ATOM                         0.000          0.000          0.000 partial forces
:FCA003:   3.ATOM                         0.000          0.000         -6.055 partial forces
       TOTAL FORCE WITH RESPECT TO THE GLOBAL COORDINATE SYSTEM:
:FGL001:   1.ATOM                 0.000000000     0.000000000     0.000000000 partial forces
:FGL002:   2.ATOM                 0.000000000     0.000000000     0.000000000 partial forces
:FGL003:   3.ATOM                -6.054545742    -6.054545742    -6.054545742 partial forces


            ---------
:ITE022: 22. ITERATION
            ---------

:NATO :    3 INDEPENDENT AND    4 TOTAL ATOMS IN UNITCELL
       SUBSTANCE: CuAlO2 BenkoF84                                             

       LATTICE                      = R   
:POT  : POTENTIAL OPTION EX_PBE EC_PBE VX_PBE VC_PBE
:LAT  : LATTICE CONSTANTS=  5.40508  5.40508 32.03482
:VOL  : UNIT CELL VOLUME =     270.16967
       MODE OF CALCULATION IS       = RELA
       NON-SPINPOLARIZED CALCULATION
:IFFT  : FFT-parameters:   90   90   90 Factor: 2.00
       ATOMNUMBER=  1 Cu1        VCOUL-ZERO =  0.38837E+00
:EFG001:                        EFG         =    -5.89926   *10**21  V / m**2
                               V20  TOT/SRF=    -5.10891     0.14490
                               V22  TOT/SRF=     0.00000     0.00000
                               V22M TOT/SRF=     0.00000     0.00000
                               V21  TOT/SRF=     0.00000     0.00000
                               V21M TOT/SRF=     0.00000     0.00000

              2.94963    0.00000    0.00000        2.94963    0.00000    0.00000
              0.00000    2.94963    0.00000        0.00000    2.94963    0.00000
              0.00000    0.00000   -5.89926        0.00000    0.00000   -5.89926

         MAIN DIRECTIONS OF THE EFG   1.0000  0.0000  0.0000
                                      0.0000  1.0000  0.0000
                                      0.0000  0.0000  1.0000
:ANG001:  ANGLE WITH OLD X-AXIS =         0.0

:ETA001:                         ASYMM. ETA =     0.00000


       ATOMNUMBER=  2 Al1        VCOUL-ZERO = -0.77297E-01
:EFG002:                        EFG         =     1.14626   *10**21  V / m**2
                               V20  TOT/SRF=     0.99269    -0.03001
                               V22  TOT/SRF=     0.00000     0.00000
                               V22M TOT/SRF=     0.00000     0.00000
                               V21  TOT/SRF=     0.00000     0.00000
                               V21M TOT/SRF=     0.00000     0.00000

             -0.57313    0.00000    0.00000       -0.57313    0.00000    0.00000
              0.00000   -0.57313    0.00000        0.00000   -0.57313    0.00000
              0.00000    0.00000    1.14626        0.00000    0.00000    1.14626

         MAIN DIRECTIONS OF THE EFG   1.0000  0.0000  0.0000
                                      0.0000  1.0000  0.0000
                                      0.0000  0.0000  1.0000
:ANG002:  ANGLE WITH OLD X-AXIS =         0.0

:ETA002:                         ASYMM. ETA =     0.00000


       ATOMNUMBER=  3 O 1        VCOUL-ZERO =  0.20889E+00
:EFG003:                        EFG         =     3.51230   *10**21  V / m**2
                               V20  TOT/SRF=     3.04174     0.29246
                               V22  TOT/SRF=     0.00000     0.00000
                               V22M TOT/SRF=     0.00000     0.00000
                               V21  TOT/SRF=     0.00000     0.00000
                               V21M TOT/SRF=     0.00000     0.00000

             -1.75615    0.00000    0.00000       -1.75615    0.00000    0.00000
              0.00000   -1.75615    0.00000        0.00000   -1.75615    0.00000
              0.00000    0.00000    3.51230        0.00000    0.00000    3.51230

         MAIN DIRECTIONS OF THE EFG   1.0000  0.0000  0.0000
                                      0.0000  1.0000  0.0000
                                      0.0000  0.0000  1.0000
:ANG003:  ANGLE WITH OLD X-AXIS =         0.0

:ETA003:                         ASYMM. ETA =     0.00000


     HELLMANN-FEYNMAN-FORCE IN mRy/a.u. = |F|  Fx       Fy             Fz
:FHF001:   1.ATOM      0.000000000      0.000000000      0.000000000      0.000000000

     HELLMANN-FEYNMAN-FORCE IN mRy/a.u. = |F|  Fx       Fy             Fz
:FHF002:   2.ATOM      0.000000000      0.000000000      0.000000000      0.000000000

     HELLMANN-FEYNMAN-FORCE IN mRy/a.u. = |F|  Fx       Fy             Fz
:FHF003:   3.ATOM     14.281462750      0.000000000      0.000000000    -14.281462750

:FIT001: LUSE= 13 SIGMA OF V-XC FIT FOR ATOM  1  0.7127508E-02
:FIT001: LUSE= 13 SIGMA OF V-XC FIT FOR ATOM  1  0.7127508E-02
:FIT002: LUSE= 13 SIGMA OF V-XC FIT FOR ATOM  2  0.8174916E-02
:FIT002: LUSE= 13 SIGMA OF V-XC FIT FOR ATOM  2  0.8174916E-02
:FIT003: LUSE= 13 SIGMA OF V-XC FIT FOR ATOM  3  0.2479915E-03
:FIT003: LUSE= 13 SIGMA OF V-XC FIT FOR ATOM  3  0.2479915E-03
:DEN  : DENSITY INTEGRAL  =         -1797.33856326   (Ry)
       ELS_POTENTIAL_AT Z=0 and Z=0.5:   0.00000   0.00000
       ELS_POTENTIAL_AT Y=0 and Y=0.5:   0.00000   0.00000
:VZERO:v0,v0c,v0x  -0.80894   0.00000  -0.80894 v5,v5c,v5x  -0.80894   0.00000  -0.80894
:VZERY:v0,v0c,v0x  -0.80894   0.00000  -0.80894 v5,v5c,v5x  -0.80894   0.00000  -0.80894
:VZERX:v0,v0c,v0x  -2.42159  -1.16762  -1.25396 v5,v5c,v5x  -0.05660   0.28448  -0.34108

          ATOMIC SPHERE DEPENDENT PARAMETERS FOR ATOM  Cu1       
:e__0001: OVERALL ENERGY PARAMETER IS    0.3300
          OVERALL BASIS SET ON ATOM IS LAPW
:E1_0001: E( 1)=    0.3300
             APW+lo
:E1_0001: E( 1)=   -4.5525   E(BOTTOM)=   -4.620   E(TOP)=   -4.485  1  2   179
             LOCAL ORBITAL
:E2_0001: E( 2)=    0.3684   E(BOTTOM)=    0.036   E(TOP)=    0.701  0  1   130
             APW+lo
:E0_0001: E( 0)=    0.3300
             APW+lo

          ATOMIC SPHERE DEPENDENT PARAMETERS FOR ATOM  Al1       
:e__0002: OVERALL ENERGY PARAMETER IS    0.3300
          OVERALL BASIS SET ON ATOM IS LAPW
:E1_0002: E( 1)=    0.3300
             APW+lo
:E1_0002: E( 1)=   -4.1995   E(BOTTOM)=   -4.301   E(TOP)=   -4.098  0  1   157
             LOCAL ORBITAL
:E0_0002: E( 0)=    0.3300
             APW+lo

          ATOMIC SPHERE DEPENDENT PARAMETERS FOR ATOM  O 1       
:e__0003: OVERALL ENERGY PARAMETER IS    0.3300
          OVERALL BASIS SET ON ATOM IS LAPW
:E0_0003: E( 0)=   -1.5500   E(BOTTOM)=   -2.555   E(TOP)= -200.000  1 -1   232
             APW+lo
:E0_0003: E( 0)=    0.7300
             LOCAL ORBITAL
:E1_0003: E( 1)=    0.3300
             APW+lo

       K=   0.00000   0.00000   0.00000            1
:RKM  : MATRIX SIZE  1268LOs:  29  RKM= 8.99  WEIGHT= 1.00  PGR:    
       EIGENVALUES ARE:
:EIG00001:      -4.5470083   -4.5327398   -4.5327398   -4.1749689   -4.1735308
:EIG00006:      -4.1735308   -1.0117604   -0.8569908   -0.0723378    0.2507441
:EIG00011:       0.2525558    0.2525558    0.2607687    0.3382221    0.3382221
:EIG00016:       0.4019759    0.4019759    0.4569375    0.4569375    0.6715735
:EIG00021:       0.9808203    1.0617208    1.3958059    1.5446295    1.5446295
:EIG00026:       1.6525378    1.6525378    1.6532188    1.9155774    1.9885171
:EIG00031:       1.9885171
       ********************************************************

:KPT   :      NUMBER OF K-POINTS:    13
       Insulator, EF-inconsistency corrected
:GAP  :    0.1416 Ry =     1.926 eV   (provided you have a proper k-mesh)
         Bandranges (emin - emax) and occupancy:
:BAN00009:   9   -0.072338    0.026042  2.00000000
:BAN00010:  10   -0.020333    0.250744  2.00000000
:BAN00011:  11    0.059571    0.265430  2.00000000
:BAN00012:  12    0.178659    0.274981  2.00000000
:BAN00013:  13    0.202456    0.289442  2.00000000
:BAN00014:  14    0.227895    0.338222  2.00000000
:BAN00015:  15    0.301577    0.387337  2.00000000
:BAN00016:  16    0.401628    0.421611  2.00000000
:BAN00017:  17    0.401976    0.458270  2.00000000
:BAN00018:  18    0.429623    0.472830  2.00000000
:BAN00019:  19    0.449456    0.529975  2.00000000
:BAN00020:  20    0.671573    0.799332  0.00000000
:BAN00021:  21    0.862639    1.120407  0.00000000
:BAN00022:  22    1.059327    1.235237  0.00000000
:BAN00023:  23    1.161353    1.430529  0.00000000
:BAN00024:  24    1.301916    1.548317  0.00000000
        Energy to separate low and high energystates:   -0.12234


:NOE  : NUMBER OF ELECTRONS          =  38.000

:FER  : F E R M I - ENERGY(TETRAH.M.)=   0.5299750731
:GMA  : POTENTIAL AND CHARGE CUT-OFF  14.00 Ry**.5




:POS001: ATOM   -1 X,Y,Z = 0.00000 0.00000 0.00000  MULT= 1  ZZ= 29.000  Cu1       

       LMMAX  7
       LM=   0 0  2 0  4 0  4 3  6 0  6 3  6 6

:CHA001: TOTAL VALENCE CHARGE INSIDE SPHERE   1 =  15.3778    (RMT=  2.0000 )
:PCS001: PARTIAL CHARGES SPHERE =  1 S,P,D,F,PZ,PXY, D-Z2,D-XY,X2Y2,D-XZ,YZ 
:QTL001: 0.2759 6.1544 8.9239 0.0179 2.1094 4.0450 0.0000 1.5762 3.6224 3.7253 0.0000 0.0000
        Q-s-low E-s-low   Q-p-low E-p-low   Q-d-low E-d-low   Q-f-low E-f-low
:EPL001:  0.0174 -0.8819    6.0018 -4.5265    0.0203 -0.8794    0.0028 -0.8764
        Q-s-hi  E-s-hi    Q-p-hi  E-p-hi    Q-d-hi  E-d-hi    Q-f-hi  E-f-hi 
:EPH001:  0.2585  0.2424    0.1526  0.2124    8.9036  0.4040    0.0151  0.2073
:VZZ001: EFG INSIDE SPHERE   1 =    -6.149326      UP TO R =   2.00000




:POS002: ATOM   -2 X,Y,Z = 0.50000 0.50000 0.50000  MULT= 1  ZZ= 13.000  Al1       

       LMMAX  7
       LM=   0 0  2 0  4 0  4 3  6 0  6 3  6 6

:CHA002: TOTAL VALENCE CHARGE INSIDE SPHERE   2 =   6.6491    (RMT=  1.8000 )
:PCS002: PARTIAL CHARGES SPHERE =  2 S,P,D,F,PZ,PXY, D-Z2,D-XY,X2Y2,D-XZ,YZ 
:QTL002: 0.2299 6.2615 0.1326 0.0205 2.0782 4.1833 0.0000 0.0098 0.0559 0.0669 0.0000 0.0000
        Q-s-low E-s-low   Q-p-low E-p-low   Q-d-low E-d-low   Q-f-low E-f-low
:EPL002:  0.0374 -0.9467    6.0147 -4.1508    0.0170 -0.8520    0.0030 -0.8742
        Q-s-hi  E-s-hi    Q-p-hi  E-p-hi    Q-d-hi  E-d-hi    Q-f-hi  E-f-hi 
:EPH002:  0.1925  0.0365    0.2468  0.1552    0.1156  0.2128    0.0175  0.2280
:VZZ002: EFG INSIDE SPHERE   2 =     1.247180      UP TO R =   1.80000




:POS003: ATOM   -3 X,Y,Z = 0.10979 0.10979 0.10979  MULT= 2  ZZ=  8.000  O 1       

       LMMAX 12
       LM=   0 0  1 0  2 0  3 0  3 3  4 0  4 3  5 0  5 3  6 0  6 3  6 6

:CHA003: TOTAL VALENCE CHARGE INSIDE SPHERE   3 =   4.5924    (RMT=  1.4000 )
:PCS003: PARTIAL CHARGES SPHERE =  3 S,P,D,F,PZ,PXY, D-Z2,D-XY,X2Y2,D-XZ,YZ 
:QTL003: 1.3776 3.2069 0.0070 0.0008 1.0354 2.1714 0.0000 0.0015 0.0013 0.0043 0.0000 0.0000
        Q-s-low E-s-low   Q-p-low E-p-low   Q-d-low E-d-low   Q-f-low E-f-low
:EPL003:  1.3246 -0.8809    0.0049 -1.1213    0.0003 -2.3710    0.0001 -2.2059
        Q-s-hi  E-s-hi    Q-p-hi  E-p-hi    Q-d-hi  E-d-hi    Q-f-hi  E-f-hi 
:EPH003:  0.0531  0.0953    3.2019  0.1877    0.0067  0.2985    0.0007  0.3341
:VZZ003: EFG INSIDE SPHERE   3 =     3.185475      UP TO R =   1.40000

:CHA  : TOTAL VALENCE CHARGE INSIDE UNIT CELL =      38.000000

:SUM  : SUM OF EIGENVALUES =         -49.781581251


        1.ATOM      Cu1                   5 CORE STATES
:1S 001: 1S                -649.633100510 Ry
:2S 001: 2S                 -77.324627363 Ry
:2PP001: 2P*                -67.642231995 Ry
:2P 001: 2P                 -66.135912718 Ry
:3S 001: 3S                  -7.669643229 Ry

        2.ATOM      Al1                   2 CORE STATES
:1S 002: 1S                -110.121728164 Ry
:2S 002: 2S                  -7.005926706 Ry

        3.ATOM      O 1                   1 CORE STATES
       CORE-FORCE in mRy/a.u. = |F|      Fx             Fy             Fz
:FCO003:   3.ATOM      8.226699727      0.000000000      0.000000000      8.226699727

:1S 003: 1S                 -36.647516391 Ry
:CINT001 Core Integral Atom   1   11.998493
:CINT002 Core Integral Atom   2    3.996084
:CINT003 Core Integral Atom   3    1.999999

       DENSITY AT NUCLEUS
        JATOM        VALENCE       SEMI-CORE          CORE           TOTAL
:RTO001:   1        7.888082        0.000000    22630.682663    22638.570745
:RTO002:   2        2.909658        0.000000     1487.081446     1489.991103
:RTO003:   3       14.714791        0.000000      304.056447      318.771238
     
       CHARGES OF NEW CHARGE DENSITY
:NTO   : INTERSTITIAL CHARGE =     6.788196
:NTO001: CHARGE SPHERE  1    =    27.376336
:NTO002: CHARGE SPHERE  2    =    10.645138
:NTO003: CHARGE SPHERE  3    =     6.592446

:NEC01: NUCLEAR AND ELECTRONIC CHARGE     58.00000    57.99456
     
       CHARGES OF OLD CHARGE DENSITY
:OTO   : INTERSTITIAL CHARGE =     6.793633
:OTO001: CHARGE SPHERE  1    =    27.376336
:OTO002: CHARGE SPHERE  2    =    10.645138
:OTO003: CHARGE SPHERE  3    =     6.592446

:NEC02: NUCLEAR AND ELECTRONIC CHARGE     58.00000    58.00000
     
       CONVERGENCE TEST
:DTO001: DIFFERENCE IN SPHERE  1 =  0.0000001
:DTO002: DIFFERENCE IN SPHERE  2 =  0.0000000
:DTO003: DIFFERENCE IN SPHERE  3 =  0.0000000

:DIS  :  CHARGE DISTANCE       ( 0.0000001 for atom    1 spin 1)      0.0000000
:BIG check (qbig,qrms,qtot)    0.236D-07   0.364D-07   0.494D-07
 
******************************************************
* MULTISECANT MIXING VER6 RELEASE 6.0 OPTIONS        *
* Standard Mode with controls                        *
* Regularization       1.000E-06                     *
* Trust Region Control Active                        *
* Max Number of Memory Steps    8                    *
******************************************************
 
:PLANE:  INTERSTITIAL TOTAL      2.03530 DISTAN  5.109E-06 % 
:CHARG:  CLM CHARGE   /ATOM     54.22894 DISTAN  1.667E-07 % 
 
 Step History DMIX, Red, Pred, Trust, FRMS, FABS
 15  2.0000E-01  1.2824E-01  1.5670E-01  5.0461E+00
 16  2.0000E-01  6.6248E-01  8.8295E-01  5.1338E+00
 17  2.0000E-01  2.3833E-01  3.2242E-01  5.1454E+00
 18  2.0000E-01  6.3162E-01  9.0377E-01  5.1827E+00
 19  2.0000E-01  1.3820E-01  1.7037E-01  5.2135E+00
 20  2.0000E-01  9.5304E-01  5.3450E-01  5.2697E+00
 21  2.0000E-01  3.9456E-01  3.7951E-01  5.2324E+00
 22  2.0000E-01  1.0000E+00  4.3633E-01  5.2621E+00
  
:NORMS:  Nuclear, Spectral, Froebius, Shanno-Pua   0.1092E+01  0.1014E+01  0.1064E+01  0.9388E+00
:INFO :  Number of Memory Steps    8 Skipping   13
:INFO :  SLambda=    1.3333333  Max    1.3333333

Eigenvalues, unscaled except for SY+YY
   #     SY Real        SY Imag          SS             YY         SY+YY Real      SY+YY Imag
   1   3.356967E+00   0.000000E+00   3.328376E+00   3.425516E+00   7.899358E+00   0.000000E+00
   2   2.055042E+00   0.000000E+00   1.904349E+00   2.344470E+00   5.078907E+00   0.000000E+00
   3   1.128073E+00   0.000000E+00   1.058088E+00   1.292121E+00   2.793654E+00   0.000000E+00
   4   6.571255E-01   0.000000E+00   6.220374E-01   6.949197E-01   1.578946E+00   0.000000E+00
   5   3.901851E-02   0.000000E+00   2.805380E-02   1.834062E-01   3.789640E-01   0.000000E+00
   6   2.977910E-03   0.000000E+00   2.008543E-03   5.452333E-02   1.077230E-01   0.000000E+00
   7   2.920964E-04   0.000000E+00   1.020579E-04   8.026029E-04   1.216497E-03   0.000000E+00
   8   1.458229E-01   0.000000E+00   1.201419E-01   4.240755E-03   8.323577E-03   0.000000E+00
 
:INFO :  Singular value   7.900E+00 Weight  1.0000E+00 Projections   1.305E-06 -1.212E-07
:INFO :  Singular value   5.079E+00 Weight  1.0000E+00 Projections  -4.086E-07 -1.065E-08
:INFO :  Singular value   2.794E+00 Weight  1.0000E+00 Projections   4.775E-07 -6.577E-08
:INFO :  Singular value   1.579E+00 Weight  1.0000E+00 Projections  -4.007E-07 -1.378E-07
:INFO :  Singular value   3.790E-01 Weight  1.0000E+00 Projections   2.757E-07 -2.701E-07
:INFO :  Singular value   1.077E-01 Weight  1.0000E+00 Projections  -1.308E-08 -1.732E-07
:INFO :  Singular value   8.323E-03 Weight  1.0000E+00 Projections   4.204E-07 -1.030E-06
:INFO :  Singular value   1.216E-03 Weight  1.0000E+00 Projections  -6.193E-07 -1.301E-06
 
:DIRM :  MEMORY 8/8 RESCALE   2.80 RED 0.346 PRED 0.436 NEXT 0.683
:INFO :  Blimit    5.236E+00  1.314E+00  1.000E+00  5.257E+00
:DIRP :  |MSR1|= 2.801E-07 |PRATT|= 2.909E-07 ANGLE=  16.5 DEGREES
:DIRQ :  |MSR1|= 0.000E+00 |PRATT|= 0.000E+00 ANGLE=   0.0 DEGREES
:DIR  :  |MSR1|= 3.083E-07 |PRATT|= 3.977E-07 ANGLE=  31.3 DEGREES
:MIX  :   MSE1   REGULARIZATION: 3.43E-06  GREED: 0.200  Newton 1.00  0.78                
     
       CHARGES OF MIXED CHARGE DENSITY
:CTO   : INTERSTITIAL CHARGE =     6.793633
:CTO001: CHARGE SPHERE  1    =    27.376336
:CTO002: CHARGE SPHERE  2    =    10.645138
:CTO003: CHARGE SPHERE  3    =     6.592446

:NEC03: NUCLEAR AND ELECTRONIC CHARGE     58.00000    58.00000

PW CHANGE     H    K    L       Current     Change     Residue
:PTO001:      0    0    0  7.34913165E-02  6.345E-10  7.032E-10
:PTO002:     -1   -1   -1 -1.97098589E-02  6.365E-10 -6.392E-10
:PTO003:     -2   -2   -2 -2.85575005E-03  1.105E-09  1.587E-09
:PTO004:     -1    0    0  1.38037227E-01  2.433E-09  2.560E-09
:PTO005:     -1   -1    0  8.01099648E-02  2.792E-09  1.837E-09
:PTO006:     -2   -1   -1 -6.86206307E-02  2.866E-09  1.421E-09
:PTO007:     -2   -2   -1 -8.33313917E-02  2.473E-09  1.932E-09
:PTO008:     -3   -3   -3  3.92524059E-02  8.456E-10  9.885E-10
:PTO009:     -3   -2   -2  2.55618245E-02  2.798E-09  4.004E-09
:PTO010:     -3   -3   -2  7.21767659E-02  3.415E-09  4.649E-09
:PTO011:     -1    0    1  5.78847601E-02  3.448E-09  4.169E-09
:PTO012:     -4   -4   -4 -3.28336493E-03  7.386E-10  2.337E-10

:ENE  : ********** TOTAL ENERGY IN Ry =        -4097.04837688

       TOTAL FORCE IN mRy/a.u. = |F|     Fx             Fy             Fz     with/without FOR in case.in2
:FOR001:   1.ATOM          0.000          0.000          0.000          0.000 partial forces
:FOR002:   2.ATOM          0.000          0.000          0.000          0.000 partial forces
:FOR003:   3.ATOM          6.055          0.000          0.000         -6.055 partial forces
       TOTAL FORCE WITH RESPECT TO GLOBAL CARTESIAN COORDINATES:
:FCA001:   1.ATOM                         0.000          0.000          0.000 partial forces
:FCA002:   2.ATOM                         0.000          0.000          0.000 partial forces
:FCA003:   3.ATOM                         0.000          0.000         -6.055 partial forces
       TOTAL FORCE WITH RESPECT TO THE GLOBAL COORDINATE SYSTEM:
:FGL001:   1.ATOM                 0.000000000     0.000000000     0.000000000 partial forces
:FGL002:   2.ATOM                 0.000000000     0.000000000     0.000000000 partial forces
:FGL003:   3.ATOM                -6.054763023    -6.054763023    -6.054763023 partial forces
