   4   4   0   0
  0.9829158E+01  0.5862275E-09  0.5862275E-09  0.5862275E-09  0.5000000E-15
  1.000000000000000E-004
  CAR 
 unknown system                          
     41.95730008   -112.48529641  301      7.01466263      1.00000000
   -112.485  0.0000E+00  0.0000E+00
   -111.970  0.0000E+00  0.0000E+00
   -111.456  0.0000E+00  0.0000E+00
   -110.941  0.0000E+00  0.0000E+00
   -110.426  0.0000E+00  0.0000E+00
   -109.911  0.0000E+00  0.0000E+00
   -109.396  0.0000E+00  0.0000E+00
   -108.882  0.0000E+00  0.0000E+00
   -108.367  0.0000E+00  0.0000E+00
   -107.852  0.0000E+00  0.0000E+00
   -107.337  0.0000E+00  0.0000E+00
   -106.822  0.0000E+00  0.0000E+00
   -106.308  0.4997E-08  0.2573E-08
   -105.793  0.3988E-01  0.2053E-01
   -105.278  0.3485E+01  0.1814E+01
   -104.763  0.3605E+00  0.2000E+01
   -104.248  0.1342E-05  0.2000E+01
   -103.734  0.0000E+00  0.2000E+01
   -103.219  0.0000E+00  0.2000E+01
   -102.704  0.0000E+00  0.2000E+01
   -102.189  0.0000E+00  0.2000E+01
   -101.674  0.0000E+00  0.2000E+01
   -101.160  0.0000E+00  0.2000E+01
   -100.645  0.0000E+00  0.2000E+01
   -100.130  0.0000E+00  0.2000E+01
    -99.615  0.0000E+00  0.2000E+01
    -99.100  0.0000E+00  0.2000E+01
    -98.585  0.0000E+00  0.2000E+01
    -98.071  0.0000E+00  0.2000E+01
    -97.556  0.0000E+00  0.2000E+01
    -97.041  0.0000E+00  0.2000E+01
    -96.526  0.0000E+00  0.2000E+01
    -96.011  0.0000E+00  0.2000E+01
    -95.497  0.0000E+00  0.2000E+01
    -94.982  0.0000E+00  0.2000E+01
    -94.467  0.0000E+00  0.2000E+01
    -93.952  0.0000E+00  0.2000E+01
    -93.437  0.0000E+00  0.2000E+01
    -92.923  0.0000E+00  0.2000E+01
    -92.408  0.0000E+00  0.2000E+01
    -91.893  0.0000E+00  0.2000E+01
    -91.378  0.0000E+00  0.2000E+01
    -90.863  0.0000E+00  0.2000E+01
    -90.349  0.0000E+00  0.2000E+01
    -89.834  0.0000E+00  0.2000E+01
    -89.319  0.0000E+00  0.2000E+01
    -88.804  0.0000E+00  0.2000E+01
    -88.289  0.0000E+00  0.2000E+01
    -87.774  0.0000E+00  0.2000E+01
    -87.260  0.0000E+00  0.2000E+01
    -86.745  0.0000E+00  0.2000E+01
    -86.230  0.0000E+00  0.2000E+01
    -85.715  0.0000E+00  0.2000E+01
    -85.200  0.0000E+00  0.2000E+01
    -84.686  0.0000E+00  0.2000E+01
    -84.171  0.0000E+00  0.2000E+01
    -83.656  0.0000E+00  0.2000E+01
    -83.141  0.0000E+00  0.2000E+01
    -82.626  0.0000E+00  0.2000E+01
    -82.112  0.0000E+00  0.2000E+01
    -81.597  0.0000E+00  0.2000E+01
    -81.082  0.0000E+00  0.2000E+01
    -80.567  0.0000E+00  0.2000E+01
    -80.052  0.0000E+00  0.2000E+01
    -79.538  0.0000E+00  0.2000E+01
    -79.023  0.0000E+00  0.2000E+01
    -78.508  0.0000E+00  0.2000E+01
    -77.993  0.0000E+00  0.2000E+01
    -77.478  0.0000E+00  0.2000E+01
    -76.963  0.0000E+00  0.2000E+01
    -76.449  0.0000E+00  0.2000E+01
    -75.934  0.0000E+00  0.2000E+01
    -75.419  0.0000E+00  0.2000E+01
    -74.904  0.0000E+00  0.2000E+01
    -74.389  0.0000E+00  0.2000E+01
    -73.875  0.0000E+00  0.2000E+01
    -73.360  0.0000E+00  0.2000E+01
    -72.845  0.0000E+00  0.2000E+01
    -72.330  0.0000E+00  0.2000E+01
    -71.815  0.0000E+00  0.2000E+01
    -71.301  0.0000E+00  0.2000E+01
    -70.786  0.0000E+00  0.2000E+01
    -70.271  0.0000E+00  0.2000E+01
    -69.756  0.0000E+00  0.2000E+01
    -69.241  0.0000E+00  0.2000E+01
    -68.727  0.0000E+00  0.2000E+01
    -68.212  0.0000E+00  0.2000E+01
    -67.697  0.0000E+00  0.2000E+01
    -67.182  0.0000E+00  0.2000E+01
    -66.667  0.0000E+00  0.2000E+01
    -66.153  0.0000E+00  0.2000E+01
    -65.638  0.0000E+00  0.2000E+01
    -65.123  0.0000E+00  0.2000E+01
    -64.608  0.0000E+00  0.2000E+01
    -64.093  0.7732E-10  0.2000E+01
    -63.578  0.5945E-02  0.2003E+01
    -63.064  0.4804E+01  0.4476E+01
    -62.549  0.6832E+01  0.7994E+01
    -62.034  0.1262E-01  0.8000E+01
    -61.519  0.1807E-09  0.8000E+01
    -61.004  0.0000E+00  0.8000E+01
    -60.490  0.0000E+00  0.8000E+01
    -59.975  0.0000E+00  0.8000E+01
    -59.460  0.0000E+00  0.8000E+01
    -58.945  0.0000E+00  0.8000E+01
    -58.430  0.0000E+00  0.8000E+01
    -57.916  0.0000E+00  0.8000E+01
    -57.401  0.0000E+00  0.8000E+01
    -56.886  0.0000E+00  0.8000E+01
    -56.371  0.0000E+00  0.8000E+01
    -55.856  0.0000E+00  0.8000E+01
    -55.342  0.0000E+00  0.8000E+01
    -54.827  0.0000E+00  0.8000E+01
    -54.312  0.0000E+00  0.8000E+01
    -53.797  0.0000E+00  0.8000E+01
    -53.282  0.0000E+00  0.8000E+01
    -52.767  0.0000E+00  0.8000E+01
    -52.253  0.0000E+00  0.8000E+01
    -51.738  0.0000E+00  0.8000E+01
    -51.223  0.0000E+00  0.8000E+01
    -50.708  0.0000E+00  0.8000E+01
    -50.193  0.0000E+00  0.8000E+01
    -49.679  0.0000E+00  0.8000E+01
    -49.164  0.0000E+00  0.8000E+01
    -48.649  0.0000E+00  0.8000E+01
    -48.134  0.0000E+00  0.8000E+01
    -47.619  0.0000E+00  0.8000E+01
    -47.105  0.0000E+00  0.8000E+01
    -46.590  0.0000E+00  0.8000E+01
    -46.075  0.0000E+00  0.8000E+01
    -45.560  0.0000E+00  0.8000E+01
    -45.045  0.0000E+00  0.8000E+01
    -44.531  0.0000E+00  0.8000E+01
    -44.016  0.0000E+00  0.8000E+01
    -43.501  0.0000E+00  0.8000E+01
    -42.986  0.0000E+00  0.8000E+01
    -42.471  0.0000E+00  0.8000E+01
    -41.957  0.0000E+00  0.8000E+01
    -41.442  0.0000E+00  0.8000E+01
    -40.927  0.0000E+00  0.8000E+01
    -40.412  0.0000E+00  0.8000E+01
    -39.897  0.0000E+00  0.8000E+01
    -39.382  0.0000E+00  0.8000E+01
    -38.868  0.0000E+00  0.8000E+01
    -38.353  0.0000E+00  0.8000E+01
    -37.838  0.0000E+00  0.8000E+01
    -37.323  0.0000E+00  0.8000E+01
    -36.808  0.0000E+00  0.8000E+01
    -36.294  0.0000E+00  0.8000E+01
    -35.779  0.0000E+00  0.8000E+01
    -35.264  0.0000E+00  0.8000E+01
    -34.749  0.0000E+00  0.8000E+01
    -34.234  0.0000E+00  0.8000E+01
    -33.720  0.0000E+00  0.8000E+01
    -33.205  0.0000E+00  0.8000E+01
    -32.690  0.0000E+00  0.8000E+01
    -32.175  0.0000E+00  0.8000E+01
    -31.660  0.0000E+00  0.8000E+01
    -31.146  0.0000E+00  0.8000E+01
    -30.631  0.0000E+00  0.8000E+01
    -30.116  0.0000E+00  0.8000E+01
    -29.601  0.0000E+00  0.8000E+01
    -29.086  0.0000E+00  0.8000E+01
    -28.571  0.0000E+00  0.8000E+01
    -28.057  0.0000E+00  0.8000E+01
    -27.542  0.0000E+00  0.8000E+01
    -27.027  0.0000E+00  0.8000E+01
    -26.512  0.0000E+00  0.8000E+01
    -25.997  0.0000E+00  0.8000E+01
    -25.483  0.0000E+00  0.8000E+01
    -24.968  0.0000E+00  0.8000E+01
    -24.453  0.0000E+00  0.8000E+01
    -23.938  0.0000E+00  0.8000E+01
    -23.423  0.0000E+00  0.8000E+01
    -22.909  0.0000E+00  0.8000E+01
    -22.394  0.0000E+00  0.8000E+01
    -21.879  0.0000E+00  0.8000E+01
    -21.364  0.0000E+00  0.8000E+01
    -20.849  0.0000E+00  0.8000E+01
    -20.335  0.0000E+00  0.8000E+01
    -19.820  0.0000E+00  0.8000E+01
    -19.305  0.0000E+00  0.8000E+01
    -18.790  0.0000E+00  0.8000E+01
    -18.275  0.0000E+00  0.8000E+01
    -17.761  0.0000E+00  0.8000E+01
    -17.246  0.0000E+00  0.8000E+01
    -16.731  0.0000E+00  0.8000E+01
    -16.216  0.0000E+00  0.8000E+01
    -15.701  0.0000E+00  0.8000E+01
    -15.186  0.0000E+00  0.8000E+01
    -14.672  0.0000E+00  0.8000E+01
    -14.157  0.1384E-09  0.8000E+01
    -13.642  0.7783E-02  0.8004E+01
    -13.127  0.3454E+01  0.9782E+01
    -12.612  0.4279E+01  0.1199E+02
    -12.098  0.2900E-01  0.1200E+02
    -11.583  0.2414E-08  0.1200E+02
    -11.068  0.0000E+00  0.1200E+02
    -10.553  0.0000E+00  0.1200E+02
    -10.038  0.0000E+00  0.1200E+02
     -9.524  0.0000E+00  0.1200E+02
     -9.009  0.0000E+00  0.1200E+02
     -8.494  0.0000E+00  0.1200E+02
     -7.979  0.0000E+00  0.1200E+02
     -7.464  0.0000E+00  0.1200E+02
     -6.950  0.0000E+00  0.1200E+02
     -6.435  0.0000E+00  0.1200E+02
     -5.920  0.0000E+00  0.1200E+02
     -5.405  0.0000E+00  0.1200E+02
     -4.890  0.0000E+00  0.1200E+02
     -4.375  0.0000E+00  0.1200E+02
     -3.861  0.0000E+00  0.1200E+02
     -3.346  0.2157E-15  0.1200E+02
     -2.831  0.5292E-05  0.1200E+02
     -2.316  0.5702E+00  0.1229E+02
     -1.801  0.3296E+01  0.1399E+02
     -1.287  0.9040E+00  0.1446E+02
     -0.772  0.2993E+01  0.1600E+02
     -0.257  0.2331E+01  0.1720E+02
      0.258  0.1560E+01  0.1800E+02
      0.773  0.7869E-01  0.1804E+02
      1.287  0.6669E+01  0.2147E+02
      1.802  0.2918E+01  0.2298E+02
      2.317  0.1989E+01  0.2400E+02
      2.832  0.5971E-03  0.2400E+02
      3.347  0.4420E+00  0.2423E+02
      3.861  0.3561E+01  0.2606E+02
      4.376  0.4355E+01  0.2830E+02
      4.891  0.6620E+01  0.3171E+02
      5.406  0.5649E+00  0.3200E+02
      5.921  0.2663E+01  0.3337E+02
      6.436  0.1219E+01  0.3400E+02
      6.950  0.7194E-04  0.3400E+02
      7.465  0.0000E+00  0.3400E+02
      7.980  0.0000E+00  0.3400E+02
      8.495  0.1188E-12  0.3400E+02
      9.010  0.2155E-03  0.3400E+02
      9.524  0.1596E+01  0.3482E+02
     10.039  0.2287E+01  0.3600E+02
     10.554  0.1238E-02  0.3600E+02
     11.069  0.3343E-11  0.3600E+02
     11.584  0.3417E-10  0.3600E+02
     12.098  0.3961E-02  0.3600E+02
     12.613  0.2758E+01  0.3742E+02
     13.128  0.1123E+01  0.3800E+02
     13.643  0.5277E-04  0.3800E+02
     14.158  0.3882E-14  0.3800E+02
     14.672  0.3254E-04  0.3800E+02
     15.187  0.9939E+00  0.3851E+02
     15.702  0.6052E+01  0.4163E+02
     16.217  0.4365E+01  0.4387E+02
     16.732  0.2442E+00  0.4400E+02
     17.246  0.1098E-03  0.4400E+02
     17.761  0.1357E+01  0.4470E+02
     18.276  0.4370E+01  0.4695E+02
     18.791  0.4386E+01  0.4921E+02
     19.306  0.1542E+01  0.5000E+02
     19.821  0.1852E-03  0.5000E+02
     20.335  0.8971E-13  0.5000E+02
     20.850  0.1270E-06  0.5000E+02
     21.365  0.1512E+00  0.5008E+02
     21.880  0.3616E+01  0.5194E+02
     22.395  0.6403E+00  0.5227E+02
     22.909  0.3340E+01  0.5399E+02
     23.424  0.2183E-01  0.5400E+02
     23.939  0.1517E-08  0.5400E+02
     24.454  0.9992E-02  0.5401E+02
     24.969  0.3099E+01  0.5560E+02
     25.483  0.7762E+00  0.5600E+02
     25.998  0.1432E-04  0.5600E+02
     26.513  0.0000E+00  0.5600E+02
     27.028  0.4266E-05  0.5600E+02
     27.543  0.6236E+00  0.5632E+02
     28.057  0.6938E+01  0.5989E+02
     28.572  0.2181E+00  0.6000E+02
     29.087  0.3082E+01  0.6159E+02
     29.602  0.1043E+01  0.6213E+02
     30.117  0.3570E+01  0.6397E+02
     30.632  0.6618E-01  0.6400E+02
     31.146  0.1639E-07  0.6400E+02
     31.661  0.2156E-03  0.6400E+02
     32.176  0.1596E+01  0.6482E+02
     32.691  0.2287E+01  0.6600E+02
     33.206  0.9652E+00  0.6650E+02
     33.720  0.6438E+01  0.6981E+02
     34.235  0.3675E+00  0.7000E+02
     34.750  0.3605E+00  0.7019E+02
     35.265  0.3485E+01  0.7198E+02
     35.780  0.3988E-01  0.7200E+02
     36.294  0.4997E-08  0.7200E+02
     36.809  0.0000E+00  0.7200E+02
     37.324  0.0000E+00  0.7200E+02
     37.839  0.0000E+00  0.7200E+02
     38.354  0.0000E+00  0.7200E+02
     38.868  0.0000E+00  0.7200E+02
     39.383  0.0000E+00  0.7200E+02
     39.898  0.0000E+00  0.7200E+02
     40.413  0.0000E+00  0.7200E+02
     40.928  0.0000E+00  0.7200E+02
     41.442  0.0000E+00  0.7200E+02
     41.957  0.0000E+00  0.7200E+02
