    4    4    1    1
  0.9829158E+01  0.5862275E-09  0.5862275E-09  0.5862275E-09  0.5000000E-15
  1.000000000000000E-004
  CAR 
 unknown system                          
     34      1     36
 
  0.9121443E-04  0.4119338E+00  0.5882724E+00  0.1000000E+01
    1     -105.465178   1.000000
    2      -63.159220   1.000000
    3      -62.970638   1.000000
    4      -62.960284   1.000000
    5      -13.235061   1.000000
    6      -12.956693   1.000000
    7       -2.167704   1.000000
    8       -1.181163   1.000000
    9       -0.292253   1.000000
   10        1.070228   1.000000
   11        1.168905   1.000000
   12        1.806496   1.000000
   13        3.517298   1.000000
   14        4.112713   1.000000
   15        4.507124   1.000000
   16        4.739108   1.000000
   17        5.852105   1.000000
   18        9.556184   0.000000
   19       12.534608   0.000000
   20       15.281160   0.000000
   21       15.584237   0.000000
   22       16.000304   0.000000
   23       17.816100   0.000000
   24       18.285221   0.000000
   25       18.753870   0.000000
   26       21.614310   0.000000
   27       22.550850   0.000000
   28       24.849486   0.000000
   29       27.697656   0.000000
   30       27.822357   0.000000
   31       28.970239   0.000000
   32       29.816996   0.000000
   33       32.207757   0.000000
   34       33.306402   0.000000
   35       33.533224   0.000000
   36       34.937182   0.000000
