       N       E                     dE             d eps       ncg     rms          rms(c)
DAV:   1     0.376150633940E+03    0.37615E+03   -0.17286E+04    96   0.332E+03
DAV:   2    -0.718988704652E+01   -0.38334E+03   -0.36121E+03   120   0.709E+02
DAV:   3    -0.286430822134E+02   -0.21453E+02   -0.21401E+02   108   0.163E+02
DAV:   4    -0.291997839017E+02   -0.55670E+00   -0.55663E+00   120   0.180E+01
DAV:   5    -0.292140625593E+02   -0.14279E-01   -0.14278E-01    72   0.285E+00
RMM:   6    -0.292152864321E+02   -0.12239E-02   -0.12239E-02   131   0.129E+00
RMM:   7    -0.292157967530E+02   -0.51032E-03   -0.49482E-03   119   0.766E-01
RMM:   8    -0.292158658897E+02   -0.69137E-04   -0.58687E-04   111   0.481E-01
RMM:   9    -0.292159255864E+02   -0.59697E-04   -0.54008E-04   115   0.388E-01
RMM:  10    -0.292159378624E+02   -0.12276E-04   -0.83250E-05   109   0.313E-01
RMM:  11    -0.292159451119E+02   -0.72495E-05   -0.67882E-05   105   0.171E-01
RMM:  12    -0.292159521767E+02   -0.70648E-05   -0.70525E-05   109   0.978E-02
RMM:  13    -0.292159540234E+02   -0.18467E-05   -0.10002E-05    95   0.105E-01
RMM:  14    -0.292159550759E+02   -0.10525E-05   -0.61778E-06    90   0.782E-02
RMM:  15    -0.292159555784E+02   -0.50253E-06   -0.47020E-06    86   0.451E-02
RMM:  16    -0.292159559648E+02   -0.38636E-06   -0.32349E-06    82   0.380E-02
RMM:  17    -0.292159560810E+02   -0.11621E-06   -0.81730E-07    83   0.284E-02
RMM:  18    -0.292159561412E+02   -0.60251E-07   -0.57099E-07    81   0.172E-02
   1 F= -.29215956E+02 E0= -.29215956E+02  d E =-.238939E-15
