<?xml version="1.0" encoding="ISO-8859-1"?>
<modeling>
 <generator>
  <i name="program" type="string">vasp </i>
  <i name="version" type="string">5.4.4.18Apr17-6-g9f103f2a35  </i>
  <i name="subversion" type="string">(build Dec 13 2019 19:06:22) complex            parallel </i>
  <i name="platform" type="string">LinuxIFC </i>
  <i name="date" type="string">2021 07 03 </i>
  <i name="time" type="string">05:29:34 </i>
 </generator>
 <incar>
  <i type="string" name="PREC">accurate</i>
  <i type="string" name="ALGO"> Fast</i>
  <i type="int" name="ISPIN">     1</i>
  <i type="int" name="ICHARG">    11</i>
  <i type="int" name="NELM">    60</i>
  <i type="int" name="IBRION">    -1</i>
  <i name="EDIFF">      0.00000010</i>
  <i name="ENCUT">    550.00000000</i>
  <i type="int" name="NBANDS">    36</i>
  <i type="logical" name="LREAL"> F  </i>
  <i type="int" name="ISMEAR">     0</i>
  <i type="logical" name="LWAVE"> F  </i>
  <i type="logical" name="LCHARG"> F  </i>
  <v type="int" name="KPOINT_BSE">    -1     0     0     0</v>
  <i type="int" name="NELM">    60</i>
  <i type="string" name="GGA"> PS</i>
 </incar>
 <structure name="primitive_cell" >
  <crystal>
   <varray name="basis" >
    <v>       1.42005454       0.81986888       5.62827908 </v>
    <v>      -1.42005454       0.81986888       5.62827908 </v>
    <v>       0.00000000      -1.63973774       5.62827908 </v>
   </varray>
   <i name="volume">     39.31663112 </i>
   <varray name="rec_basis" >
    <v>       0.35209915       0.20328454       0.05922473 </v>
    <v>      -0.35209915       0.20328454       0.05922473 </v>
    <v>      -0.00000000      -0.40656908       0.05922473 </v>
   </varray>
  </crystal>
  <varray name="positions" >
   <v>       0.00000000       0.00000000       0.00000000 </v>
   <v>       0.10956395       0.10956395       0.10956395 </v>
   <v>      -0.10956395      -0.10956395      -0.10956395 </v>
   <v>      -0.50000000      -0.50000000      -0.50000000 </v>
  </varray>
 </structure>
 <varray name="primitive_index" >
  <v type="int" >        1 </v>
  <v type="int" >        3 </v>
  <v type="int" >        4 </v>
  <v type="int" >        2 </v>
 </varray>
 <kpoints>
  <varray name="kpointlist" >
   <v>       0.00009121       0.41193376       0.58827235 </v>
  </varray>
  <varray name="weights" >
   <v>       1.00000000 </v>
  </varray>
 </kpoints>
 <parameters>
  <separator name="general" >
   <i type="string" name="SYSTEM">unknown system</i>
   <i type="logical" name="LCOMPAT"> F  </i>
  </separator>
  <separator name="electronic" >
   <i type="string" name="PREC">accura</i>
   <i name="ENMAX">    550.00000000</i>
   <i name="ENAUG">    982.89200000</i>
   <i name="EDIFF">      0.00000010</i>
   <i type="int" name="IALGO">    68</i>
   <i type="int" name="IWAVPR">    10</i>
   <i type="int" name="NBANDS">    36</i>
   <i name="NELECT">     34.00000000</i>
   <i type="int" name="TURBO">     0</i>
   <i type="int" name="IRESTART">     0</i>
   <i type="int" name="NREBOOT">     0</i>
   <i type="int" name="NMIN">     0</i>
   <i name="EREF">      0.00000000</i>
   <separator name="electronic smearing" >
    <i type="int" name="ISMEAR">     0</i>
    <i name="SIGMA">      0.20000000</i>
    <i name="KSPACING">      0.50000000</i>
    <i type="logical" name="KGAMMA"> T  </i>
   </separator>
   <separator name="electronic projectors" >
    <i type="logical" name="LREAL"> F  </i>
    <v name="ROPT">      0.00000000      0.00000000      0.00000000</v>
    <i type="int" name="LMAXPAW">  -100</i>
    <i type="int" name="LMAXMIX">     2</i>
    <i type="logical" name="NLSPLINE"> F  </i>
   </separator>
   <separator name="electronic startup" >
    <i type="int" name="ISTART">     0</i>
    <i type="int" name="ICHARG">    11</i>
    <i type="int" name="INIWAV">     1</i>
   </separator>
   <separator name="electronic spin" >
    <i type="int" name="ISPIN">     1</i>
    <i type="logical" name="LNONCOLLINEAR"> F  </i>
    <v name="MAGMOM">      1.00000000      1.00000000      1.00000000      1.00000000</v>
    <i name="NUPDOWN">     -1.00000000</i>
    <i type="logical" name="LSORBIT"> F  </i>
    <v name="SAXIS">      0.00000000      0.00000000      1.00000000</v>
    <i type="logical" name="LSPIRAL"> F  </i>
    <v name="QSPIRAL">      0.00000000      0.00000000      0.00000000</v>
    <i type="logical" name="LZEROZ"> F  </i>
   </separator>
   <separator name="electronic exchange-correlation" >
    <i type="logical" name="LASPH"> F  </i>
    <i type="logical" name="LMETAGGA"> F  </i>
   </separator>
   <separator name="electronic convergence" >
    <i type="int" name="NELM">    60</i>
    <i type="int" name="NELMDL">     0</i>
    <i type="int" name="NELMIN">     2</i>
    <i name="ENINI">    550.00000000</i>
    <separator name="electronic convergence detail" >
     <i type="logical" name="LDIAG"> T  </i>
     <i type="logical" name="LSUBROT"> F  </i>
     <i name="WEIMIN">      0.00000000</i>
     <i name="EBREAK">      0.00000000</i>
     <i name="DEPER">      0.30000000</i>
     <i type="int" name="NRMM">     4</i>
     <i name="TIME">      0.40000000</i>
    </separator>
   </separator>
   <separator name="electronic mixer" >
    <i name="AMIX">      0.40000000</i>
    <i name="BMIX">      1.00000000</i>
    <i name="AMIN">      0.10000000</i>
    <i name="AMIX_MAG">      1.60000000</i>
    <i name="BMIX_MAG">      1.00000000</i>
    <separator name="electronic mixer details" >
     <i type="int" name="IMIX">     4</i>
     <i type="logical" name="MIXFIRST"> F  </i>
     <i type="int" name="MAXMIX">   -45</i>
     <i name="WC">    100.00000000</i>
     <i type="int" name="INIMIX">     1</i>
     <i type="int" name="MIXPRE">     1</i>
     <i type="int" name="MREMOVE">     5</i>
    </separator>
   </separator>
   <separator name="electronic dipolcorrection" >
    <i type="logical" name="LDIPOL"> F  </i>
    <i type="logical" name="LMONO"> F  </i>
    <i type="int" name="IDIPOL">     0</i>
    <i name="EPSILON">      1.00000000</i>
    <v name="DIPOL">   -100.00000000   -100.00000000   -100.00000000</v>
    <i name="EFIELD">      0.00000000</i>
   </separator>
  </separator>
  <separator name="grids" >
   <i type="int" name="NGX">    48</i>
   <i type="int" name="NGY">    48</i>
   <i type="int" name="NGZ">    48</i>
   <i type="int" name="NGXF">    96</i>
   <i type="int" name="NGYF">    96</i>
   <i type="int" name="NGZF">    96</i>
   <i type="logical" name="ADDGRID"> F  </i>
  </separator>
  <separator name="ionic" >
   <i type="int" name="NSW">     0</i>
   <i type="int" name="IBRION">    -1</i>
   <i type="int" name="MDALGO">     0</i>
   <i type="int" name="ISIF">     2</i>
   <i name="PSTRESS">      0.00000000</i>
   <i name="EDIFFG">      0.00000100</i>
   <i type="int" name="NFREE">     0</i>
   <i name="POTIM">      0.50000000</i>
   <i name="SMASS">     -3.00000000</i>
   <i name="SCALEE">      1.00000000</i>
  </separator>
  <separator name="ionic md" >
   <i name="TEBEG">      0.00010000</i>
   <i name="TEEND">      0.00010000</i>
   <i type="int" name="NBLOCK">     1</i>
   <i type="int" name="KBLOCK">     1</i>
   <i type="int" name="NPACO">   256</i>
   <i name="APACO">     16.00000000</i>
  </separator>
  <separator name="symmetry" >
   <i type="int" name="ISYM">     2</i>
   <i name="SYMPREC">      0.00001000</i>
  </separator>
  <separator name="dos" >
   <i type="int" name="LORBIT">     0</i>
   <v name="RWIGS">     -1.00000000     -1.00000000     -1.00000000</v>
   <i type="int" name="NEDOS">   301</i>
   <i name="EMIN">     10.00000000</i>
   <i name="EMAX">    -10.00000000</i>
   <i name="EFERMI">      0.00000000</i>
  </separator>
  <separator name="writing" >
   <i type="int" name="NWRITE">     2</i>
   <i type="logical" name="LWAVE"> F  </i>
   <i type="logical" name="LDOWNSAMPLE"> F  </i>
   <i type="logical" name="LCHARG"> F  </i>
   <i type="logical" name="LPARD"> F  </i>
   <i type="logical" name="LVTOT"> F  </i>
   <i type="logical" name="LVHAR"> F  </i>
   <i type="logical" name="LELF"> F  </i>
   <i type="logical" name="LOPTICS"> F  </i>
   <v name="STM">      0.00000000      0.00000000      0.00000000      0.00000000      0.00000000      0.00000000      0.00000000</v>
  </separator>
  <separator name="performance" >
   <i type="int" name="NPAR">     6</i>
   <i type="int" name="NSIM">     4</i>
   <i type="int" name="NBLK">    -1</i>
   <i type="logical" name="LPLANE"> T  </i>
   <i type="logical" name="LSCALAPACK"> T  </i>
   <i type="logical" name="LSCAAWARE"> F  </i>
   <i type="logical" name="LSCALU"> F  </i>
   <i type="logical" name="LASYNC"> F  </i>
   <i type="logical" name="LORBITALREAL"> F  </i>
  </separator>
  <separator name="miscellaneous" >
   <i type="int" name="IDIOT">     3</i>
   <i type="int" name="ISPECIAL">     0</i>
   <i type="logical" name="LMUSIC"> F  </i>
   <v name="POMASS">     63.54600000     26.98200000     16.00000000</v>
   <v name="DARWINR">      0.00000000      0.00000000      0.00000000</v>
   <v name="DARWINV">      1.00000000      1.00000000      1.00000000</v>
   <i type="logical" name="LCORR"> T  </i>
  </separator>
  <i type="logical" name="GGA_COMPAT"> T  </i>
  <i type="logical" name="LBERRY"> F  </i>
  <i type="int" name="ICORELEVEL">     0</i>
  <i type="logical" name="LDAU"> F  </i>
  <i type="int" name="I_CONSTRAINED_M">     0</i>
  <separator name="electronic exchange-correlation" >
   <i type="string" name="GGA">PS</i>
   <i type="int" name="VOSKOWN">     0</i>
   <i type="logical" name="LHFCALC"> F  </i>
   <i type="string" name="PRECFOCK"></i>
   <i type="logical" name="LSYMGRAD"> F  </i>
   <i type="logical" name="LHFONE"> F  </i>
   <i type="logical" name="LRHFCALC"> F  </i>
   <i type="logical" name="LTHOMAS"> F  </i>
   <i type="logical" name="LMODELHF"> F  </i>
   <i name="ENCUT4O">     -1.00000000</i>
   <i type="int" name="EXXOEP">     0</i>
   <i type="int" name="FOURORBIT">     0</i>
   <i name="AEXX">      0.00000000</i>
   <i name="HFALPHA">      0.00000000</i>
   <i name="MCALPHA">      0.00000000</i>
   <i name="ALDAX">      1.00000000</i>
   <i name="AGGAX">      1.00000000</i>
   <i name="ALDAC">      1.00000000</i>
   <i name="AGGAC">      1.00000000</i>
   <i type="int" name="NKREDX">     1</i>
   <i type="int" name="NKREDY">     1</i>
   <i type="int" name="NKREDZ">     1</i>
   <i type="logical" name="SHIFTRED"> F  </i>
   <i type="logical" name="ODDONLY"> F  </i>
   <i type="logical" name="EVENONLY"> F  </i>
   <i type="int" name="LMAXFOCK">     0</i>
   <i type="int" name="NMAXFOCKAE">     0</i>
   <i type="logical" name="LFOCKAEDFT"> F  </i>
   <i name="HFSCREEN">      0.00000000</i>
   <i name="HFSCREENC">      0.00000000</i>
   <i type="int" name="NBANDSGWLOW">     0</i>
  </separator>
  <separator name="vdW DFT" >
   <i type="logical" name="LUSE_VDW"> F  </i>
   <i name="Zab_VDW">     -0.84910000</i>
   <i name="PARAM1">      0.12340000</i>
   <i name="PARAM2">      1.00000000</i>
   <i name="PARAM3">      0.00000000</i>
  </separator>
  <separator name="model GW" >
   <i type="int" name="MODEL_GW">     0</i>
   <i name="MODEL_EPS0">      5.89749467</i>
   <i name="MODEL_ALPHA">      1.00000000</i>
  </separator>
  <separator name="linear response parameters" >
   <i type="logical" name="LEPSILON"> F  </i>
   <i type="logical" name="LRPA"> F  </i>
   <i type="logical" name="LNABLA"> F  </i>
   <i type="logical" name="LVEL"> F  </i>
   <i type="int" name="KINTER">     0</i>
   <i name="CSHIFT">      0.10000000</i>
   <i name="OMEGAMAX">     -1.00000000</i>
   <i name="DEG_THRESHOLD">      0.00200000</i>
   <i name="RTIME">     -0.10000000</i>
   <i name="WPLASMAI">      0.00000000</i>
   <v name="DFIELD">      0.00000000      0.00000000      0.00000000</v>
   <v name="WPLASMA">      0.00000000      0.00000000      0.00000000      0.00000000      0.00000000      0.00000000      0.00000000      0.00000000      0.00000000</v>
  </separator>
  <separator name="orbital magnetization" >
   <i type="logical" name="NUCIND"> F  </i>
   <v name="MAGPOS">      0.00000000      0.00000000      0.00000000</v>
   <i type="logical" name="LNICSALL"> T  </i>
   <i type="logical" name="ORBITALMAG"> F  </i>
   <i type="logical" name="LMAGBLOCH"> F  </i>
   <i type="logical" name="LCHIMAG"> F  </i>
   <i type="logical" name="LGAUGE"> T  </i>
   <i type="int" name="MAGATOM">     0</i>
   <v name="MAGDIPOL">      0.00000000      0.00000000      0.00000000</v>
   <v name="AVECCONST">      0.00000000      0.00000000      0.00000000</v>
  </separator>
  <separator name="response functions" >
   <i type="logical" name="LADDER"> F  </i>
   <i type="logical" name="LRPAFORCE"> F  </i>
   <i type="logical" name="LFXC"> F  </i>
   <i type="logical" name="LHARTREE"> T  </i>
   <i type="int" name="IBSE">     0</i>
   <v type="int" name="KPOINT">    -1     0     0     0</v>
   <i type="logical" name="LTCTE"> F  </i>
   <i type="logical" name="LTETE"> F  </i>
   <i type="logical" name="LTRIPLET"> F  </i>
   <i type="logical" name="LFXCEPS"> F  </i>
   <i type="logical" name="LFXHEG"> F  </i>
   <i type="int" name="NATURALO">     2</i>
   <i type="logical" name="L2ORDER"> F  </i>
   <i type="logical" name="LMP2LT"> F  </i>
   <i type="logical" name="LUSEW"> F  </i>
   <i name="ENCUTGW">     -2.00000000</i>
   <i name="ENCUTGWSOFT">     -2.00000000</i>
   <i name="ENCUTLF">     -1.00000000</i>
   <i type="int" name="LMAXMP2">    -1</i>
   <i name="SCISSOR">      0.00000000</i>
   <i type="int" name="NOMEGA">     0</i>
   <i type="int" name="NOMEGAR">     0</i>
   <i type="int" name="NBANDSGW">    -1</i>
   <i type="int" name="NBANDSO">    -1</i>
   <i type="int" name="NBANDSV">    -1</i>
   <i type="int" name="NELM">    60</i>
   <i type="int" name="NELMHF">     1</i>
   <i type="int" name="DIM">     3</i>
   <i type="int" name="ANTIRES">     0</i>
   <i name="OMEGAMAX">    -30.00000000</i>
   <i name="OMEGAMIN">    -30.00000000</i>
   <i name="OMEGATL">   -200.00000000</i>
   <i type="int" name="OMEGAGRID">   140</i>
   <i name="CSHIFT">     -0.10000000</i>
   <i type="logical" name="SELFENERGY"> F  </i>
   <i type="logical" name="LSPECTRAL"> F  </i>
   <i type="logical" name="LSPECTRALGW"> F  </i>
   <i type="logical" name="LSINGLES"> F  </i>
   <i type="logical" name="LFERMIGW"> F  </i>
   <i type="logical" name="ODDONLYGW"> F  </i>
   <i type="logical" name="EVENONLYGW"> F  </i>
   <i type="int" name="NKREDLFX">     1</i>
   <i type="int" name="NKREDLFY">     1</i>
   <i type="int" name="NKREDLFZ">     1</i>
   <i type="int" name="MAXMEM">  2800</i>
   <i type="int" name="TELESCOPE">     0</i>
   <i type="int" name="TAUPAR">     1</i>
   <i type="int" name="OMEGAPAR">    -1</i>
   <i name="LAMBDA">      1.00000000</i>
  </separator>
  <separator name="External order field" >
   <i name="OFIELD_KAPPA">      0.00000000</i>
   <v name="OFIELD_K">      0.00000000      0.00000000      0.00000000</v>
   <i name="OFIELD_Q6_NEAR">      0.00000000</i>
   <i name="OFIELD_Q6_FAR">      0.00000000</i>
   <i name="OFIELD_A">      0.00000000</i>
  </separator>
 </parameters>
 <atominfo>
  <atoms>       4 </atoms>
  <types>       3 </types>
  <array name="atoms" >
   <dimension dim="1">ion</dimension>
   <field type="string">element</field>
   <field type="int">atomtype</field>
   <set>
    <rc><c>Cu</c><c>   1</c></rc>
    <rc><c>Al</c><c>   2</c></rc>
    <rc><c>O </c><c>   3</c></rc>
    <rc><c>O </c><c>   3</c></rc>
   </set>
  </array>
  <array name="atomtypes" >
   <dimension dim="1">type</dimension>
   <field type="int">atomspertype</field>
   <field type="string">element</field>
   <field>mass</field>
   <field>valence</field>
   <field type="string">pseudopotential</field>
   <set>
    <rc><c>   1</c><c>Cu</c><c>     63.54600000</c><c>     19.00000000</c><c>  PAW_PBE Cu_sv_GW 05Dec2013            </c></rc>
    <rc><c>   1</c><c>Al</c><c>     26.98200000</c><c>      3.00000000</c><c>  PAW_PBE Al_GW 19Mar2012               </c></rc>
    <rc><c>   2</c><c>O </c><c>     16.00000000</c><c>      6.00000000</c><c>  PAW_PBE O_GW 28Sep2005                </c></rc>
   </set>
  </array>
 </atominfo>
 <structure name="initialpos" >
  <crystal>
   <varray name="basis" >
    <v>       1.42005454       0.81986888       5.62827908 </v>
    <v>      -1.42005454       0.81986888       5.62827908 </v>
    <v>       0.00000000      -1.63973774       5.62827908 </v>
   </varray>
   <i name="volume">     39.31663112 </i>
   <varray name="rec_basis" >
    <v>       0.35209915       0.20328454       0.05922473 </v>
    <v>      -0.35209915       0.20328454       0.05922473 </v>
    <v>      -0.00000000      -0.40656908       0.05922473 </v>
   </varray>
  </crystal>
  <varray name="positions" >
   <v>       0.00000000       0.00000000       0.00000000 </v>
   <v>       0.50000000       0.50000000       0.50000000 </v>
   <v>       0.10956395       0.10956395       0.10956395 </v>
   <v>       0.89043605       0.89043605       0.89043605 </v>
  </varray>
 </structure>
 <calculation>
  <scstep>
   <time name="dav">    0.11    0.11</time>
   <time name="total">    0.20    0.21</time>
   <energy>
    <i name="alphaZ">    167.28213848 </i>
    <i name="ewald">  -3351.06778565 </i>
    <i name="hartreedc">  -2400.81965511 </i>
    <i name="XCdc">    180.92806670 </i>
    <i name="pawpsdc">   5402.02430262 </i>
    <i name="pawaedc">  -5725.83564433 </i>
    <i name="eentropy">     -0.00001144 </i>
    <i name="bandstr">   -189.86183275 </i>
    <i name="atom">   6293.50105541 </i>
    <i name="e_fr_energy">    376.15063394 </i>
    <i name="e_wo_entrp">    376.15064538 </i>
    <i name="e_0_energy">    376.15063966 </i>
   </energy>
  </scstep>
  <scstep>
   <time name="dav">    0.10    0.10</time>
   <time name="total">    0.10    0.10</time>
   <energy>
    <i name="e_fr_energy">     -7.18988705 </i>
    <i name="e_wo_entrp">     -7.18988705 </i>
    <i name="e_0_energy">     -7.18988705 </i>
   </energy>
  </scstep>
  <scstep>
   <time name="dav">    0.12    0.12</time>
   <time name="total">    0.12    0.12</time>
   <energy>
    <i name="e_fr_energy">    -28.64308221 </i>
    <i name="e_wo_entrp">    -28.64308221 </i>
    <i name="e_0_energy">    -28.64308221 </i>
   </energy>
  </scstep>
  <scstep>
   <time name="dav">    0.17    0.17</time>
   <time name="total">    0.17    0.17</time>
   <energy>
    <i name="e_fr_energy">    -29.19978390 </i>
    <i name="e_wo_entrp">    -29.19978390 </i>
    <i name="e_0_energy">    -29.19978390 </i>
   </energy>
  </scstep>
  <scstep>
   <time name="dav">    0.12    0.12</time>
   <time name="total">    0.12    0.12</time>
   <energy>
    <i name="e_fr_energy">    -29.21406256 </i>
    <i name="e_wo_entrp">    -29.21406256 </i>
    <i name="e_0_energy">    -29.21406256 </i>
   </energy>
  </scstep>
  <scstep>
   <time name="diag">    0.03    0.03</time>
   <time name="diis">    0.22    0.23</time>
   <time name="orth">    0.00    0.00</time>
   <time name="total">    0.25    0.25</time>
   <energy>
    <i name="e_fr_energy">    -29.21528643 </i>
    <i name="e_wo_entrp">    -29.21528643 </i>
    <i name="e_0_energy">    -29.21528643 </i>
   </energy>
  </scstep>
  <scstep>
   <time name="diag">    0.03    0.03</time>
   <time name="diis">    0.20    0.20</time>
   <time name="orth">    0.00    0.00</time>
   <time name="total">    0.23    0.23</time>
   <energy>
    <i name="e_fr_energy">    -29.21579675 </i>
    <i name="e_wo_entrp">    -29.21579675 </i>
    <i name="e_0_energy">    -29.21579675 </i>
   </energy>
  </scstep>
  <scstep>
   <time name="diag">    0.03    0.03</time>
   <time name="diis">    0.19    0.19</time>
   <time name="orth">    0.00    0.00</time>
   <time name="total">    0.21    0.22</time>
   <energy>
    <i name="e_fr_energy">    -29.21586589 </i>
    <i name="e_wo_entrp">    -29.21586589 </i>
    <i name="e_0_energy">    -29.21586589 </i>
   </energy>
  </scstep>
  <scstep>
   <time name="diag">    0.03    0.03</time>
   <time name="diis">    0.20    0.20</time>
   <time name="orth">    0.00    0.00</time>
   <time name="total">    0.23    0.23</time>
   <energy>
    <i name="e_fr_energy">    -29.21592559 </i>
    <i name="e_wo_entrp">    -29.21592559 </i>
    <i name="e_0_energy">    -29.21592559 </i>
   </energy>
  </scstep>
  <scstep>
   <time name="diag">    0.03    0.03</time>
   <time name="diis">    0.19    0.19</time>
   <time name="orth">    0.00    0.00</time>
   <time name="total">    0.22    0.23</time>
   <energy>
    <i name="e_fr_energy">    -29.21593786 </i>
    <i name="e_wo_entrp">    -29.21593786 </i>
    <i name="e_0_energy">    -29.21593786 </i>
   </energy>
  </scstep>
  <scstep>
   <time name="diag">    0.03    0.03</time>
   <time name="diis">    0.19    0.19</time>
   <time name="orth">    0.00    0.00</time>
   <time name="total">    0.22    0.22</time>
   <energy>
    <i name="e_fr_energy">    -29.21594511 </i>
    <i name="e_wo_entrp">    -29.21594511 </i>
    <i name="e_0_energy">    -29.21594511 </i>
   </energy>
  </scstep>
  <scstep>
   <time name="diag">    0.03    0.03</time>
   <time name="diis">    0.19    0.19</time>
   <time name="orth">    0.00    0.00</time>
   <time name="total">    0.22    0.22</time>
   <energy>
    <i name="e_fr_energy">    -29.21595218 </i>
    <i name="e_wo_entrp">    -29.21595218 </i>
    <i name="e_0_energy">    -29.21595218 </i>
   </energy>
  </scstep>
  <scstep>
   <time name="diag">    0.03    0.03</time>
   <time name="diis">    0.17    0.17</time>
   <time name="orth">    0.00    0.00</time>
   <time name="total">    0.20    0.20</time>
   <energy>
    <i name="e_fr_energy">    -29.21595402 </i>
    <i name="e_wo_entrp">    -29.21595402 </i>
    <i name="e_0_energy">    -29.21595402 </i>
   </energy>
  </scstep>
  <scstep>
   <time name="diag">    0.03    0.03</time>
   <time name="diis">    0.18    0.18</time>
   <time name="orth">    0.00    0.00</time>
   <time name="total">    0.21    0.21</time>
   <energy>
    <i name="e_fr_energy">    -29.21595508 </i>
    <i name="e_wo_entrp">    -29.21595508 </i>
    <i name="e_0_energy">    -29.21595508 </i>
   </energy>
  </scstep>
  <scstep>
   <time name="diag">    0.03    0.03</time>
   <time name="diis">    0.15    0.15</time>
   <time name="orth">    0.00    0.00</time>
   <time name="total">    0.18    0.18</time>
   <energy>
    <i name="e_fr_energy">    -29.21595558 </i>
    <i name="e_wo_entrp">    -29.21595558 </i>
    <i name="e_0_energy">    -29.21595558 </i>
   </energy>
  </scstep>
  <scstep>
   <time name="diag">    0.03    0.03</time>
   <time name="diis">    0.14    0.14</time>
   <time name="orth">    0.00    0.00</time>
   <time name="total">    0.17    0.17</time>
   <energy>
    <i name="e_fr_energy">    -29.21595596 </i>
    <i name="e_wo_entrp">    -29.21595596 </i>
    <i name="e_0_energy">    -29.21595596 </i>
   </energy>
  </scstep>
  <scstep>
   <time name="diag">    0.03    0.03</time>
   <time name="diis">    0.14    0.14</time>
   <time name="orth">    0.00    0.00</time>
   <time name="total">    0.17    0.17</time>
   <energy>
    <i name="e_fr_energy">    -29.21595608 </i>
    <i name="e_wo_entrp">    -29.21595608 </i>
    <i name="e_0_energy">    -29.21595608 </i>
   </energy>
  </scstep>
  <scstep>
   <time name="diag">    0.03    0.03</time>
   <time name="diis">    0.14    0.14</time>
   <time name="orth">    0.00    0.00</time>
   <time name="total">    0.17    0.17</time>
   <energy>
    <i name="alphaZ">    167.28213848 </i>
    <i name="ewald">  -3351.06778565 </i>
    <i name="hartreedc">  -2400.81965511 </i>
    <i name="XCdc">    180.92806670 </i>
    <i name="pawpsdc">   5402.02430262 </i>
    <i name="pawaedc">  -5725.83564433 </i>
    <i name="eentropy">     -0.00000000 </i>
    <i name="bandstr">   -595.22843427 </i>
    <i name="atom">   6293.50105541 </i>
    <i name="e_fr_energy">    -29.21595614 </i>
    <i name="e_wo_entrp">    -29.21595614 </i>
    <i name="e_0_energy">    -29.21595614 </i>
   </energy>
  </scstep>
  <structure>
   <crystal>
    <varray name="basis" >
     <v>       1.42005454       0.81986888       5.62827908 </v>
     <v>      -1.42005454       0.81986888       5.62827908 </v>
     <v>       0.00000000      -1.63973774       5.62827908 </v>
    </varray>
    <i name="volume">     39.31663112 </i>
    <varray name="rec_basis" >
     <v>       0.35209915       0.20328454       0.05922473 </v>
     <v>      -0.35209915       0.20328454       0.05922473 </v>
     <v>      -0.00000000      -0.40656908       0.05922473 </v>
    </varray>
   </crystal>
   <varray name="positions" >
    <v>       0.00000000       0.00000000       0.00000000 </v>
    <v>       0.50000000       0.50000000       0.50000000 </v>
    <v>       0.10956395       0.10956395       0.10956395 </v>
    <v>       0.89043605       0.89043605       0.89043605 </v>
   </varray>
  </structure>
  <varray name="forces" >
   <v>       0.00000000      -0.00000000       0.00000000 </v>
   <v>       0.00000000      -0.00000000       0.00000000 </v>
   <v>      -0.00000000       0.00000000       0.22215037 </v>
   <v>      -0.00000000      -0.00000000      -0.22215037 </v>
  </varray>
  <varray name="stress" >
   <v>    2232.82431558      -0.00000000      -0.00000000 </v>
   <v>      -0.00000000    2232.82430565       0.00000111 </v>
   <v>      -0.00000000       0.00000111    1866.80453824 </v>
  </varray>
  <energy>
   <i name="e_fr_energy">    -29.21595614 </i>
   <i name="e_wo_entrp">    -29.21595614 </i>
   <i name="e_0_energy">     -0.00000000 </i>
  </energy>
  <time name="totalsc">    4.24    4.26</time>
  <eigenvalues>
   <array>
    <dimension dim="1">band</dimension>
    <dimension dim="2">kpoint</dimension>
    <dimension dim="3">spin</dimension>
    <field>eigene</field>
    <field>occ</field>
    <set>
     <set comment="spin 1">
      <set comment="kpoint 1">
       <r> -105.4652    1.0000 </r>
       <r>  -63.1592    1.0000 </r>
       <r>  -62.9706    1.0000 </r>
       <r>  -62.9603    1.0000 </r>
       <r>  -13.2351    1.0000 </r>
       <r>  -12.9567    1.0000 </r>
       <r>   -2.1677    1.0000 </r>
       <r>   -1.1812    1.0000 </r>
       <r>   -0.2923    1.0000 </r>
       <r>    1.0702    1.0000 </r>
       <r>    1.1689    1.0000 </r>
       <r>    1.8065    1.0000 </r>
       <r>    3.5173    1.0000 </r>
       <r>    4.1127    1.0000 </r>
       <r>    4.5071    1.0000 </r>
       <r>    4.7391    1.0000 </r>
       <r>    5.8521    1.0000 </r>
       <r>    9.5562    0.0000 </r>
       <r>   12.5346    0.0000 </r>
       <r>   15.2812    0.0000 </r>
       <r>   15.5842    0.0000 </r>
       <r>   16.0003    0.0000 </r>
       <r>   17.8161    0.0000 </r>
       <r>   18.2852    0.0000 </r>
       <r>   18.7539    0.0000 </r>
       <r>   21.6143    0.0000 </r>
       <r>   22.5509    0.0000 </r>
       <r>   24.8495    0.0000 </r>
       <r>   27.6977    0.0000 </r>
       <r>   27.8224    0.0000 </r>
       <r>   28.9702    0.0000 </r>
       <r>   29.8170    0.0000 </r>
       <r>   32.2078    0.0000 </r>
       <r>   33.3064    0.0000 </r>
       <r>   33.5332    0.0000 </r>
       <r>   34.9372    0.0000 </r>
      </set>
     </set>
    </set>
   </array>
  </eigenvalues>
  <separator name="orbital magnetization" >
   <v name="MAGDIPOLOUT">      0.00000000      0.00000000      0.00000000</v>
  </separator>
  <dos>
   <i name="efermi">      7.01466263 </i>
   <total>
    <array>
     <dimension dim="1">gridpoints</dimension>
     <dimension dim="2">spin</dimension>
     <field>energy</field>
     <field>total</field>
     <field>integrated</field>
     <set>
      <set comment="spin 1">
       <r>  -112.4853     0.0000     0.0000 </r>
       <r>  -111.9705     0.0000     0.0000 </r>
       <r>  -111.4557     0.0000     0.0000 </r>
       <r>  -110.9409     0.0000     0.0000 </r>
       <r>  -110.4261     0.0000     0.0000 </r>
       <r>  -109.9113     0.0000     0.0000 </r>
       <r>  -109.3964     0.0000     0.0000 </r>
       <r>  -108.8816     0.0000     0.0000 </r>
       <r>  -108.3668     0.0000     0.0000 </r>
       <r>  -107.8520     0.0000     0.0000 </r>
       <r>  -107.3372     0.0000     0.0000 </r>
       <r>  -106.8224     0.0000     0.0000 </r>
       <r>  -106.3076     0.0000     0.0000 </r>
       <r>  -105.7928     0.0399     0.0205 </r>
       <r>  -105.2780     3.4845     1.8144 </r>
       <r>  -104.7632     0.3605     2.0000 </r>
       <r>  -104.2484     0.0000     2.0000 </r>
       <r>  -103.7335     0.0000     2.0000 </r>
       <r>  -103.2187     0.0000     2.0000 </r>
       <r>  -102.7039     0.0000     2.0000 </r>
       <r>  -102.1891     0.0000     2.0000 </r>
       <r>  -101.6743     0.0000     2.0000 </r>
       <r>  -101.1595     0.0000     2.0000 </r>
       <r>  -100.6447     0.0000     2.0000 </r>
       <r>  -100.1299     0.0000     2.0000 </r>
       <r>   -99.6151     0.0000     2.0000 </r>
       <r>   -99.1003     0.0000     2.0000 </r>
       <r>   -98.5855     0.0000     2.0000 </r>
       <r>   -98.0707     0.0000     2.0000 </r>
       <r>   -97.5558     0.0000     2.0000 </r>
       <r>   -97.0410     0.0000     2.0000 </r>
       <r>   -96.5262     0.0000     2.0000 </r>
       <r>   -96.0114     0.0000     2.0000 </r>
       <r>   -95.4966     0.0000     2.0000 </r>
       <r>   -94.9818     0.0000     2.0000 </r>
       <r>   -94.4670     0.0000     2.0000 </r>
       <r>   -93.9522     0.0000     2.0000 </r>
       <r>   -93.4374     0.0000     2.0000 </r>
       <r>   -92.9226     0.0000     2.0000 </r>
       <r>   -92.4078     0.0000     2.0000 </r>
       <r>   -91.8930     0.0000     2.0000 </r>
       <r>   -91.3781     0.0000     2.0000 </r>
       <r>   -90.8633     0.0000     2.0000 </r>
       <r>   -90.3485     0.0000     2.0000 </r>
       <r>   -89.8337     0.0000     2.0000 </r>
       <r>   -89.3189     0.0000     2.0000 </r>
       <r>   -88.8041     0.0000     2.0000 </r>
       <r>   -88.2893     0.0000     2.0000 </r>
       <r>   -87.7745     0.0000     2.0000 </r>
       <r>   -87.2597     0.0000     2.0000 </r>
       <r>   -86.7449     0.0000     2.0000 </r>
       <r>   -86.2301     0.0000     2.0000 </r>
       <r>   -85.7152     0.0000     2.0000 </r>
       <r>   -85.2004     0.0000     2.0000 </r>
       <r>   -84.6856     0.0000     2.0000 </r>
       <r>   -84.1708     0.0000     2.0000 </r>
       <r>   -83.6560     0.0000     2.0000 </r>
       <r>   -83.1412     0.0000     2.0000 </r>
       <r>   -82.6264     0.0000     2.0000 </r>
       <r>   -82.1116     0.0000     2.0000 </r>
       <r>   -81.5968     0.0000     2.0000 </r>
       <r>   -81.0820     0.0000     2.0000 </r>
       <r>   -80.5672     0.0000     2.0000 </r>
       <r>   -80.0524     0.0000     2.0000 </r>
       <r>   -79.5375     0.0000     2.0000 </r>
       <r>   -79.0227     0.0000     2.0000 </r>
       <r>   -78.5079     0.0000     2.0000 </r>
       <r>   -77.9931     0.0000     2.0000 </r>
       <r>   -77.4783     0.0000     2.0000 </r>
       <r>   -76.9635     0.0000     2.0000 </r>
       <r>   -76.4487     0.0000     2.0000 </r>
       <r>   -75.9339     0.0000     2.0000 </r>
       <r>   -75.4191     0.0000     2.0000 </r>
       <r>   -74.9043     0.0000     2.0000 </r>
       <r>   -74.3895     0.0000     2.0000 </r>
       <r>   -73.8746     0.0000     2.0000 </r>
       <r>   -73.3598     0.0000     2.0000 </r>
       <r>   -72.8450     0.0000     2.0000 </r>
       <r>   -72.3302     0.0000     2.0000 </r>
       <r>   -71.8154     0.0000     2.0000 </r>
       <r>   -71.3006     0.0000     2.0000 </r>
       <r>   -70.7858     0.0000     2.0000 </r>
       <r>   -70.2710     0.0000     2.0000 </r>
       <r>   -69.7562     0.0000     2.0000 </r>
       <r>   -69.2414     0.0000     2.0000 </r>
       <r>   -68.7266     0.0000     2.0000 </r>
       <r>   -68.2118     0.0000     2.0000 </r>
       <r>   -67.6969     0.0000     2.0000 </r>
       <r>   -67.1821     0.0000     2.0000 </r>
       <r>   -66.6673     0.0000     2.0000 </r>
       <r>   -66.1525     0.0000     2.0000 </r>
       <r>   -65.6377     0.0000     2.0000 </r>
       <r>   -65.1229     0.0000     2.0000 </r>
       <r>   -64.6081     0.0000     2.0000 </r>
       <r>   -64.0933     0.0000     2.0000 </r>
       <r>   -63.5785     0.0059     2.0031 </r>
       <r>   -63.0637     4.8040     4.4762 </r>
       <r>   -62.5489     6.8323     7.9935 </r>
       <r>   -62.0340     0.0126     8.0000 </r>
       <r>   -61.5192     0.0000     8.0000 </r>
       <r>   -61.0044     0.0000     8.0000 </r>
       <r>   -60.4896     0.0000     8.0000 </r>
       <r>   -59.9748     0.0000     8.0000 </r>
       <r>   -59.4600     0.0000     8.0000 </r>
       <r>   -58.9452     0.0000     8.0000 </r>
       <r>   -58.4304     0.0000     8.0000 </r>
       <r>   -57.9156     0.0000     8.0000 </r>
       <r>   -57.4008     0.0000     8.0000 </r>
       <r>   -56.8860     0.0000     8.0000 </r>
       <r>   -56.3712     0.0000     8.0000 </r>
       <r>   -55.8563     0.0000     8.0000 </r>
       <r>   -55.3415     0.0000     8.0000 </r>
       <r>   -54.8267     0.0000     8.0000 </r>
       <r>   -54.3119     0.0000     8.0000 </r>
       <r>   -53.7971     0.0000     8.0000 </r>
       <r>   -53.2823     0.0000     8.0000 </r>
       <r>   -52.7675     0.0000     8.0000 </r>
       <r>   -52.2527     0.0000     8.0000 </r>
       <r>   -51.7379     0.0000     8.0000 </r>
       <r>   -51.2231     0.0000     8.0000 </r>
       <r>   -50.7083     0.0000     8.0000 </r>
       <r>   -50.1934     0.0000     8.0000 </r>
       <r>   -49.6786     0.0000     8.0000 </r>
       <r>   -49.1638     0.0000     8.0000 </r>
       <r>   -48.6490     0.0000     8.0000 </r>
       <r>   -48.1342     0.0000     8.0000 </r>
       <r>   -47.6194     0.0000     8.0000 </r>
       <r>   -47.1046     0.0000     8.0000 </r>
       <r>   -46.5898     0.0000     8.0000 </r>
       <r>   -46.0750     0.0000     8.0000 </r>
       <r>   -45.5602     0.0000     8.0000 </r>
       <r>   -45.0454     0.0000     8.0000 </r>
       <r>   -44.5306     0.0000     8.0000 </r>
       <r>   -44.0157     0.0000     8.0000 </r>
       <r>   -43.5009     0.0000     8.0000 </r>
       <r>   -42.9861     0.0000     8.0000 </r>
       <r>   -42.4713     0.0000     8.0000 </r>
       <r>   -41.9565     0.0000     8.0000 </r>
       <r>   -41.4417     0.0000     8.0000 </r>
       <r>   -40.9269     0.0000     8.0000 </r>
       <r>   -40.4121     0.0000     8.0000 </r>
       <r>   -39.8973     0.0000     8.0000 </r>
       <r>   -39.3825     0.0000     8.0000 </r>
       <r>   -38.8677     0.0000     8.0000 </r>
       <r>   -38.3529     0.0000     8.0000 </r>
       <r>   -37.8380     0.0000     8.0000 </r>
       <r>   -37.3232     0.0000     8.0000 </r>
       <r>   -36.8084     0.0000     8.0000 </r>
       <r>   -36.2936     0.0000     8.0000 </r>
       <r>   -35.7788     0.0000     8.0000 </r>
       <r>   -35.2640     0.0000     8.0000 </r>
       <r>   -34.7492     0.0000     8.0000 </r>
       <r>   -34.2344     0.0000     8.0000 </r>
       <r>   -33.7196     0.0000     8.0000 </r>
       <r>   -33.2048     0.0000     8.0000 </r>
       <r>   -32.6900     0.0000     8.0000 </r>
       <r>   -32.1751     0.0000     8.0000 </r>
       <r>   -31.6603     0.0000     8.0000 </r>
       <r>   -31.1455     0.0000     8.0000 </r>
       <r>   -30.6307     0.0000     8.0000 </r>
       <r>   -30.1159     0.0000     8.0000 </r>
       <r>   -29.6011     0.0000     8.0000 </r>
       <r>   -29.0863     0.0000     8.0000 </r>
       <r>   -28.5715     0.0000     8.0000 </r>
       <r>   -28.0567     0.0000     8.0000 </r>
       <r>   -27.5419     0.0000     8.0000 </r>
       <r>   -27.0271     0.0000     8.0000 </r>
       <r>   -26.5123     0.0000     8.0000 </r>
       <r>   -25.9974     0.0000     8.0000 </r>
       <r>   -25.4826     0.0000     8.0000 </r>
       <r>   -24.9678     0.0000     8.0000 </r>
       <r>   -24.4530     0.0000     8.0000 </r>
       <r>   -23.9382     0.0000     8.0000 </r>
       <r>   -23.4234     0.0000     8.0000 </r>
       <r>   -22.9086     0.0000     8.0000 </r>
       <r>   -22.3938     0.0000     8.0000 </r>
       <r>   -21.8790     0.0000     8.0000 </r>
       <r>   -21.3642     0.0000     8.0000 </r>
       <r>   -20.8494     0.0000     8.0000 </r>
       <r>   -20.3345     0.0000     8.0000 </r>
       <r>   -19.8197     0.0000     8.0000 </r>
       <r>   -19.3049     0.0000     8.0000 </r>
       <r>   -18.7901     0.0000     8.0000 </r>
       <r>   -18.2753     0.0000     8.0000 </r>
       <r>   -17.7605     0.0000     8.0000 </r>
       <r>   -17.2457     0.0000     8.0000 </r>
       <r>   -16.7309     0.0000     8.0000 </r>
       <r>   -16.2161     0.0000     8.0000 </r>
       <r>   -15.7013     0.0000     8.0000 </r>
       <r>   -15.1865     0.0000     8.0000 </r>
       <r>   -14.6717     0.0000     8.0000 </r>
       <r>   -14.1568     0.0000     8.0000 </r>
       <r>   -13.6420     0.0078     8.0040 </r>
       <r>   -13.1272     3.4539     9.7821 </r>
       <r>   -12.6124     4.2792    11.9851 </r>
       <r>   -12.0976     0.0290    12.0000 </r>
       <r>   -11.5828     0.0000    12.0000 </r>
       <r>   -11.0680     0.0000    12.0000 </r>
       <r>   -10.5532     0.0000    12.0000 </r>
       <r>   -10.0384     0.0000    12.0000 </r>
       <r>    -9.5236     0.0000    12.0000 </r>
       <r>    -9.0088     0.0000    12.0000 </r>
       <r>    -8.4939     0.0000    12.0000 </r>
       <r>    -7.9791     0.0000    12.0000 </r>
       <r>    -7.4643     0.0000    12.0000 </r>
       <r>    -6.9495     0.0000    12.0000 </r>
       <r>    -6.4347     0.0000    12.0000 </r>
       <r>    -5.9199     0.0000    12.0000 </r>
       <r>    -5.4051     0.0000    12.0000 </r>
       <r>    -4.8903     0.0000    12.0000 </r>
       <r>    -4.3755     0.0000    12.0000 </r>
       <r>    -3.8607     0.0000    12.0000 </r>
       <r>    -3.3459     0.0000    12.0000 </r>
       <r>    -2.8311     0.0000    12.0000 </r>
       <r>    -2.3162     0.5702    12.2936 </r>
       <r>    -1.8014     3.2961    13.9904 </r>
       <r>    -1.2866     0.9040    14.4558 </r>
       <r>    -0.7718     2.9935    15.9969 </r>
       <r>    -0.2570     2.3308    17.1968 </r>
       <r>     0.2578     1.5600    17.9999 </r>
       <r>     0.7726     0.0787    18.0404 </r>
       <r>     1.2874     6.6689    21.4736 </r>
       <r>     1.8022     2.9181    22.9759 </r>
       <r>     2.3170     1.9887    23.9997 </r>
       <r>     2.8318     0.0006    24.0000 </r>
       <r>     3.3467     0.4420    24.2276 </r>
       <r>     3.8615     3.5608    26.0607 </r>
       <r>     4.3763     4.3551    28.3027 </r>
       <r>     4.8911     6.6201    31.7108 </r>
       <r>     5.4059     0.5649    32.0016 </r>
       <r>     5.9207     2.6626    33.3723 </r>
       <r>     6.4355     1.2192    34.0000 </r>
       <r>     6.9503     0.0001    34.0000 </r>
       <r>     7.4651     0.0000    34.0000 </r>
       <r>     7.9799     0.0000    34.0000 </r>
       <r>     8.4947     0.0000    34.0000 </r>
       <r>     9.0095     0.0002    34.0001 </r>
       <r>     9.5244     1.5964    34.8219 </r>
       <r>    10.0392     2.2871    35.9994 </r>
       <r>    10.5540     0.0012    36.0000 </r>
       <r>    11.0688     0.0000    36.0000 </r>
       <r>    11.5836     0.0000    36.0000 </r>
       <r>    12.0984     0.0040    36.0020 </r>
       <r>    12.6132     2.7575    37.4216 </r>
       <r>    13.1280     1.1234    38.0000 </r>
       <r>    13.6428     0.0001    38.0000 </r>
       <r>    14.1576     0.0000    38.0000 </r>
       <r>    14.6724     0.0000    38.0000 </r>
       <r>    15.1873     0.9939    38.5117 </r>
       <r>    15.7021     6.0520    41.6273 </r>
       <r>    16.2169     4.3648    43.8743 </r>
       <r>    16.7317     0.2442    44.0000 </r>
       <r>    17.2465     0.0001    44.0001 </r>
       <r>    17.7613     1.3568    44.6986 </r>
       <r>    18.2761     4.3698    46.9482 </r>
       <r>    18.7909     4.3863    49.2063 </r>
       <r>    19.3057     1.5416    49.9999 </r>
       <r>    19.8205     0.0002    50.0000 </r>
       <r>    20.3353     0.0000    50.0000 </r>
       <r>    20.8501     0.0000    50.0000 </r>
       <r>    21.3650     0.1512    50.0779 </r>
       <r>    21.8798     3.6161    51.9395 </r>
       <r>    22.3946     0.6403    52.2691 </r>
       <r>    22.9094     3.3403    53.9888 </r>
       <r>    23.4242     0.0218    54.0000 </r>
       <r>    23.9390     0.0000    54.0000 </r>
       <r>    24.4538     0.0100    54.0051 </r>
       <r>    24.9686     3.0988    55.6004 </r>
       <r>    25.4834     0.7762    56.0000 </r>
       <r>    25.9982     0.0000    56.0000 </r>
       <r>    26.5130     0.0000    56.0000 </r>
       <r>    27.0278     0.0000    56.0000 </r>
       <r>    27.5427     0.6236    56.3210 </r>
       <r>    28.0575     6.9377    59.8926 </r>
       <r>    28.5723     0.2181    60.0049 </r>
       <r>    29.0871     3.0816    61.5913 </r>
       <r>    29.6019     1.0430    62.1282 </r>
       <r>    30.1167     3.5696    63.9659 </r>
       <r>    30.6315     0.0662    64.0000 </r>
       <r>    31.1463     0.0000    64.0000 </r>
       <r>    31.6611     0.0002    64.0001 </r>
       <r>    32.1759     1.5964    64.8220 </r>
       <r>    32.6907     2.2871    65.9994 </r>
       <r>    33.2056     0.9652    66.4963 </r>
       <r>    33.7204     6.4384    69.8108 </r>
       <r>    34.2352     0.3675    70.0000 </r>
       <r>    34.7500     0.3605    70.1856 </r>
       <r>    35.2648     3.4845    71.9795 </r>
       <r>    35.7796     0.0399    72.0000 </r>
       <r>    36.2944     0.0000    72.0000 </r>
       <r>    36.8092     0.0000    72.0000 </r>
       <r>    37.3240     0.0000    72.0000 </r>
       <r>    37.8388     0.0000    72.0000 </r>
       <r>    38.3536     0.0000    72.0000 </r>
       <r>    38.8684     0.0000    72.0000 </r>
       <r>    39.3833     0.0000    72.0000 </r>
       <r>    39.8981     0.0000    72.0000 </r>
       <r>    40.4129     0.0000    72.0000 </r>
       <r>    40.9277     0.0000    72.0000 </r>
       <r>    41.4425     0.0000    72.0000 </r>
       <r>    41.9573     0.0000    72.0000 </r>
      </set>
     </set>
    </array>
   </total>
  </dos>
 </calculation>
 <structure name="finalpos" >
  <crystal>
   <varray name="basis" >
    <v>       1.42005454       0.81986888       5.62827908 </v>
    <v>      -1.42005454       0.81986888       5.62827908 </v>
    <v>       0.00000000      -1.63973774       5.62827908 </v>
   </varray>
   <i name="volume">     39.31663112 </i>
   <varray name="rec_basis" >
    <v>       0.35209915       0.20328454       0.05922473 </v>
    <v>      -0.35209915       0.20328454       0.05922473 </v>
    <v>      -0.00000000      -0.40656908       0.05922473 </v>
   </varray>
  </crystal>
  <varray name="positions" >
   <v>       0.00000000       0.00000000       0.00000000 </v>
   <v>       0.50000000       0.50000000       0.50000000 </v>
   <v>       0.10956395       0.10956395       0.10956395 </v>
   <v>       0.89043605       0.89043605       0.89043605 </v>
  </varray>
 </structure>
</modeling>
