unknown system                          
           1
     1.420055    0.819869    5.628279
    -1.420055    0.819869    5.628279
     0.000000   -1.639738    5.628279
   Cu   Al   O 
   1   1   2
Direct configuration=     1
   0.00000000  0.00000000  0.00000000
   0.50000000  0.50000000  0.50000000
   0.10956395  0.10956395  0.10956395
   0.89043605  0.89043605  0.89043605
