   4   4   0   0
  0.9829158E+01  0.5862275E-09  0.5862275E-09  0.5862275E-09  0.5000000E-15
  1.000000000000000E-004
  CAR 
 unknown system                          
     66.08984911   -113.63612470  301      6.85516358      1.00000000
   -113.636  0.0000E+00  0.0000E+00
   -113.037  0.0000E+00  0.0000E+00
   -112.438  0.0000E+00  0.0000E+00
   -111.839  0.0000E+00  0.0000E+00
   -111.240  0.0000E+00  0.0000E+00
   -110.641  0.0000E+00  0.0000E+00
   -110.042  0.0000E+00  0.0000E+00
   -109.443  0.0000E+00  0.0000E+00
   -108.843  0.0000E+00  0.0000E+00
   -108.244  0.0000E+00  0.0000E+00
   -107.645  0.0000E+00  0.0000E+00
   -107.046  0.0000E+00  0.0000E+00
   -106.447  0.6395E-11  0.3831E-11
   -105.848  0.1133E-01  0.6786E-02
   -105.249  0.3116E+01  0.1874E+01
   -104.650  0.2108E+00  0.2000E+01
   -104.051  0.1362E-07  0.2000E+01
   -103.452  0.0000E+00  0.2000E+01
   -102.853  0.0000E+00  0.2000E+01
   -102.253  0.0000E+00  0.2000E+01
   -101.654  0.0000E+00  0.2000E+01
   -101.055  0.0000E+00  0.2000E+01
   -100.456  0.0000E+00  0.2000E+01
    -99.857  0.0000E+00  0.2000E+01
    -99.258  0.0000E+00  0.2000E+01
    -98.659  0.0000E+00  0.2000E+01
    -98.060  0.0000E+00  0.2000E+01
    -97.461  0.0000E+00  0.2000E+01
    -96.862  0.0000E+00  0.2000E+01
    -96.263  0.0000E+00  0.2000E+01
    -95.664  0.0000E+00  0.2000E+01
    -95.064  0.0000E+00  0.2000E+01
    -94.465  0.0000E+00  0.2000E+01
    -93.866  0.0000E+00  0.2000E+01
    -93.267  0.0000E+00  0.2000E+01
    -92.668  0.0000E+00  0.2000E+01
    -92.069  0.0000E+00  0.2000E+01
    -91.470  0.0000E+00  0.2000E+01
    -90.871  0.0000E+00  0.2000E+01
    -90.272  0.0000E+00  0.2000E+01
    -89.673  0.0000E+00  0.2000E+01
    -89.074  0.0000E+00  0.2000E+01
    -88.474  0.0000E+00  0.2000E+01
    -87.875  0.0000E+00  0.2000E+01
    -87.276  0.0000E+00  0.2000E+01
    -86.677  0.0000E+00  0.2000E+01
    -86.078  0.0000E+00  0.2000E+01
    -85.479  0.0000E+00  0.2000E+01
    -84.880  0.0000E+00  0.2000E+01
    -84.281  0.0000E+00  0.2000E+01
    -83.682  0.0000E+00  0.2000E+01
    -83.083  0.0000E+00  0.2000E+01
    -82.484  0.0000E+00  0.2000E+01
    -81.885  0.0000E+00  0.2000E+01
    -81.285  0.0000E+00  0.2000E+01
    -80.686  0.0000E+00  0.2000E+01
    -80.087  0.0000E+00  0.2000E+01
    -79.488  0.0000E+00  0.2000E+01
    -78.889  0.0000E+00  0.2000E+01
    -78.290  0.0000E+00  0.2000E+01
    -77.691  0.0000E+00  0.2000E+01
    -77.092  0.0000E+00  0.2000E+01
    -76.493  0.0000E+00  0.2000E+01
    -75.894  0.0000E+00  0.2000E+01
    -75.295  0.0000E+00  0.2000E+01
    -74.695  0.0000E+00  0.2000E+01
    -74.096  0.0000E+00  0.2000E+01
    -73.497  0.0000E+00  0.2000E+01
    -72.898  0.0000E+00  0.2000E+01
    -72.299  0.0000E+00  0.2000E+01
    -71.700  0.0000E+00  0.2000E+01
    -71.101  0.0000E+00  0.2000E+01
    -70.502  0.0000E+00  0.2000E+01
    -69.903  0.0000E+00  0.2000E+01
    -69.304  0.0000E+00  0.2000E+01
    -68.705  0.0000E+00  0.2000E+01
    -68.106  0.0000E+00  0.2000E+01
    -67.506  0.0000E+00  0.2000E+01
    -66.907  0.0000E+00  0.2000E+01
    -66.308  0.0000E+00  0.2000E+01
    -65.709  0.0000E+00  0.2000E+01
    -65.110  0.0000E+00  0.2000E+01
    -64.511  0.0000E+00  0.2000E+01
    -63.912  0.1718E-06  0.2000E+01
    -63.313  0.5064E+00  0.2303E+01
    -62.714  0.9235E+01  0.7836E+01
    -62.115  0.2742E+00  0.8000E+01
    -61.516  0.7673E-08  0.8000E+01
    -60.917  0.0000E+00  0.8000E+01
    -60.317  0.0000E+00  0.8000E+01
    -59.718  0.0000E+00  0.8000E+01
    -59.119  0.0000E+00  0.8000E+01
    -58.520  0.0000E+00  0.8000E+01
    -57.921  0.0000E+00  0.8000E+01
    -57.322  0.0000E+00  0.8000E+01
    -56.723  0.0000E+00  0.8000E+01
    -56.124  0.0000E+00  0.8000E+01
    -55.525  0.0000E+00  0.8000E+01
    -54.926  0.0000E+00  0.8000E+01
    -54.327  0.0000E+00  0.8000E+01
    -53.727  0.0000E+00  0.8000E+01
    -53.128  0.0000E+00  0.8000E+01
    -52.529  0.0000E+00  0.8000E+01
    -51.930  0.0000E+00  0.8000E+01
    -51.331  0.0000E+00  0.8000E+01
    -50.732  0.0000E+00  0.8000E+01
    -50.133  0.0000E+00  0.8000E+01
    -49.534  0.0000E+00  0.8000E+01
    -48.935  0.0000E+00  0.8000E+01
    -48.336  0.0000E+00  0.8000E+01
    -47.737  0.0000E+00  0.8000E+01
    -47.138  0.0000E+00  0.8000E+01
    -46.538  0.0000E+00  0.8000E+01
    -45.939  0.0000E+00  0.8000E+01
    -45.340  0.0000E+00  0.8000E+01
    -44.741  0.0000E+00  0.8000E+01
    -44.142  0.0000E+00  0.8000E+01
    -43.543  0.0000E+00  0.8000E+01
    -42.944  0.0000E+00  0.8000E+01
    -42.345  0.0000E+00  0.8000E+01
    -41.746  0.0000E+00  0.8000E+01
    -41.147  0.0000E+00  0.8000E+01
    -40.548  0.0000E+00  0.8000E+01
    -39.948  0.0000E+00  0.8000E+01
    -39.349  0.0000E+00  0.8000E+01
    -38.750  0.0000E+00  0.8000E+01
    -38.151  0.0000E+00  0.8000E+01
    -37.552  0.0000E+00  0.8000E+01
    -36.953  0.0000E+00  0.8000E+01
    -36.354  0.0000E+00  0.8000E+01
    -35.755  0.0000E+00  0.8000E+01
    -35.156  0.0000E+00  0.8000E+01
    -34.557  0.0000E+00  0.8000E+01
    -33.958  0.0000E+00  0.8000E+01
    -33.359  0.0000E+00  0.8000E+01
    -32.759  0.0000E+00  0.8000E+01
    -32.160  0.0000E+00  0.8000E+01
    -31.561  0.0000E+00  0.8000E+01
    -30.962  0.0000E+00  0.8000E+01
    -30.363  0.0000E+00  0.8000E+01
    -29.764  0.0000E+00  0.8000E+01
    -29.165  0.0000E+00  0.8000E+01
    -28.566  0.0000E+00  0.8000E+01
    -27.967  0.0000E+00  0.8000E+01
    -27.368  0.0000E+00  0.8000E+01
    -26.769  0.0000E+00  0.8000E+01
    -26.169  0.0000E+00  0.8000E+01
    -25.570  0.0000E+00  0.8000E+01
    -24.971  0.0000E+00  0.8000E+01
    -24.372  0.0000E+00  0.8000E+01
    -23.773  0.0000E+00  0.8000E+01
    -23.174  0.0000E+00  0.8000E+01
    -22.575  0.0000E+00  0.8000E+01
    -21.976  0.0000E+00  0.8000E+01
    -21.377  0.0000E+00  0.8000E+01
    -20.778  0.0000E+00  0.8000E+01
    -20.179  0.0000E+00  0.8000E+01
    -19.580  0.0000E+00  0.8000E+01
    -18.980  0.0000E+00  0.8000E+01
    -18.381  0.0000E+00  0.8000E+01
    -17.782  0.0000E+00  0.8000E+01
    -17.183  0.0000E+00  0.8000E+01
    -16.584  0.0000E+00  0.8000E+01
    -15.985  0.2200E-08  0.8000E+01
    -15.386  0.8750E-02  0.8005E+01
    -14.787  0.4421E+00  0.8270E+01
    -14.188  0.7272E+00  0.8706E+01
    -13.589  0.1059E+01  0.9340E+01
    -12.990  0.2027E+01  0.1055E+02
    -12.390  0.2409E+01  0.1200E+02
    -11.791  0.3582E-02  0.1200E+02
    -11.192  0.2284E-11  0.1200E+02
    -10.593  0.0000E+00  0.1200E+02
     -9.994  0.0000E+00  0.1200E+02
     -9.395  0.0000E+00  0.1200E+02
     -8.796  0.0000E+00  0.1200E+02
     -8.197  0.0000E+00  0.1200E+02
     -7.598  0.0000E+00  0.1200E+02
     -6.999  0.0000E+00  0.1200E+02
     -6.400  0.0000E+00  0.1200E+02
     -5.801  0.0000E+00  0.1200E+02
     -5.201  0.0000E+00  0.1200E+02
     -4.602  0.0000E+00  0.1200E+02
     -4.003  0.0000E+00  0.1200E+02
     -3.404  0.1878E-10  0.1200E+02
     -2.805  0.1035E-02  0.1200E+02
     -2.206  0.5193E+00  0.1231E+02
     -1.607  0.2377E+01  0.1374E+02
     -1.008  0.2476E+01  0.1522E+02
     -0.409  0.1088E+01  0.1587E+02
      0.190  0.1282E+01  0.1664E+02
      0.789  0.2071E+01  0.1788E+02
      1.388  0.2755E+01  0.1953E+02
      1.988  0.3331E+01  0.2153E+02
      2.587  0.3291E+01  0.2350E+02
      3.186  0.1880E+01  0.2462E+02
      3.785  0.2189E+01  0.2593E+02
      4.384  0.4595E+01  0.2869E+02
      4.983  0.6491E+01  0.3258E+02
      5.582  0.1531E+01  0.3349E+02
      6.181  0.8440E+00  0.3400E+02
      6.780  0.7958E-03  0.3400E+02
      7.379  0.1021E-04  0.3400E+02
      7.978  0.3193E-01  0.3402E+02
      8.578  0.7192E+00  0.3445E+02
      9.177  0.1829E+01  0.3555E+02
      9.776  0.5166E+00  0.3586E+02
     10.375  0.1763E+00  0.3596E+02
     10.974  0.9211E-01  0.3602E+02
     11.573  0.8182E-01  0.3607E+02
     12.172  0.3305E+00  0.3626E+02
     12.771  0.9514E+00  0.3683E+02
     13.370  0.9957E+00  0.3743E+02
     13.969  0.1720E+01  0.3846E+02
     14.568  0.1699E+01  0.3948E+02
     15.167  0.1321E+01  0.4027E+02
     15.767  0.1620E+01  0.4124E+02
     16.366  0.1452E+01  0.4211E+02
     16.965  0.2130E+01  0.4339E+02
     17.564  0.3033E+01  0.4520E+02
     18.163  0.3170E+01  0.4710E+02
     18.762  0.2411E+01  0.4855E+02
     19.361  0.1720E+01  0.4958E+02
     19.960  0.2643E+00  0.4973E+02
     20.559  0.1039E+00  0.4980E+02
     21.158  0.1646E+00  0.4990E+02
     21.757  0.1386E+01  0.5073E+02
     22.357  0.9245E+00  0.5128E+02
     22.956  0.1659E+01  0.5227E+02
     23.555  0.1925E+01  0.5343E+02
     24.154  0.1222E+01  0.5416E+02
     24.753  0.1237E+01  0.5490E+02
     25.352  0.1240E+01  0.5564E+02
     25.951  0.1462E+01  0.5652E+02
     26.550  0.1285E+01  0.5729E+02
     27.149  0.1460E+01  0.5816E+02
     27.748  0.1522E+01  0.5907E+02
     28.347  0.1198E+01  0.5979E+02
     28.946  0.1278E+01  0.6056E+02
     29.546  0.1120E+01  0.6123E+02
     30.145  0.1536E+01  0.6215E+02
     30.744  0.1435E+01  0.6301E+02
     31.343  0.1589E+01  0.6396E+02
     31.942  0.2186E+01  0.6527E+02
     32.541  0.1597E+01  0.6623E+02
     33.140  0.2224E+01  0.6756E+02
     33.739  0.2346E+01  0.6897E+02
     34.338  0.1598E+01  0.6992E+02
     34.937  0.9159E+00  0.7047E+02
     35.536  0.1240E+01  0.7121E+02
     36.136  0.7223E+00  0.7165E+02
     36.735  0.4744E-01  0.7168E+02
     37.334  0.7042E-03  0.7168E+02
     37.933  0.3235E-01  0.7170E+02
     38.532  0.2392E-01  0.7171E+02
     39.131  0.2384E-01  0.7172E+02
     39.730  0.1318E-01  0.7173E+02
     40.329  0.6855E-02  0.7174E+02
     40.928  0.3445E-07  0.7174E+02
     41.527  0.3047E-05  0.7174E+02
     42.126  0.2698E-01  0.7175E+02
     42.725  0.4534E-01  0.7178E+02
     43.325  0.8372E-02  0.7178E+02
     43.924  0.1926E-01  0.7180E+02
     44.523  0.1959E-01  0.7181E+02
     45.122  0.8823E-01  0.7186E+02
     45.721  0.1588E-01  0.7187E+02
     46.320  0.7379E-01  0.7191E+02
     46.919  0.3014E-02  0.7192E+02
     47.518  0.4261E-03  0.7192E+02
     48.117  0.9063E-01  0.7197E+02
     48.716  0.1714E-01  0.7198E+02
     49.315  0.1199E-01  0.7199E+02
     49.915  0.6717E-06  0.7199E+02
     50.514  0.0000E+00  0.7199E+02
     51.113  0.0000E+00  0.7199E+02
     51.712  0.0000E+00  0.7199E+02
     52.311  0.0000E+00  0.7199E+02
     52.910  0.0000E+00  0.7199E+02
     53.509  0.0000E+00  0.7199E+02
     54.108  0.0000E+00  0.7199E+02
     54.707  0.0000E+00  0.7199E+02
     55.306  0.0000E+00  0.7199E+02
     55.905  0.0000E+00  0.7199E+02
     56.504  0.0000E+00  0.7199E+02
     57.104  0.7634E-10  0.7199E+02
     57.703  0.1236E-02  0.7199E+02
     58.302  0.1872E-01  0.7200E+02
     58.901  0.7034E-04  0.7200E+02
     59.500  0.4158E-13  0.7200E+02
     60.099  0.0000E+00  0.7200E+02
     60.698  0.0000E+00  0.7200E+02
     61.297  0.0000E+00  0.7200E+02
     61.896  0.0000E+00  0.7200E+02
     62.495  0.0000E+00  0.7200E+02
     63.094  0.0000E+00  0.7200E+02
     63.694  0.0000E+00  0.7200E+02
     64.293  0.0000E+00  0.7200E+02
     64.892  0.0000E+00  0.7200E+02
     65.491  0.0000E+00  0.7200E+02
     66.090  0.0000E+00  0.7200E+02
