    4    4    1    1
  0.9829158E+01  0.5862275E-09  0.5862275E-09  0.5862275E-09  0.5000000E-15
  1.000000000000000E-004
  CAR 
 unknown system                          
     34    116     36
 
  0.0000000E+00  0.0000000E+00  0.0000000E+00  0.1000000E-02
    1     -105.466760   1.000000
    2      -63.161885   1.000000
    3      -62.950768   1.000000
    4      -62.950768   1.000000
    5      -15.268239   1.000000
    6      -13.091533   1.000000
    7       -2.593794   1.000000
    8        1.889152   1.000000
    9        1.992657   1.000000
   10        1.992657   1.000000
   11        2.048706   1.000000
   12        3.193061   1.000000
   13        3.193061   1.000000
   14        4.029489   1.000000
   15        4.029489   1.000000
   16        4.815073   1.000000
   17        4.815073   1.000000
   18        7.773317   0.000000
   19       11.906451   0.000000
   20       13.128536   0.000000
   21       17.537751   0.000000
   22       19.665436   0.000000
   23       19.664719   0.000000
   24       24.642807   0.000000
   25       25.875384   0.000000
   26       25.939949   0.000000
   27       26.954135   0.000000
   28       26.954641   0.000000
   29       27.213761   0.000000
   30       30.211848   0.000000
   31       31.043195   0.000000
   32       31.044968   0.000000
   33       31.867665   0.000000
   34       22.619507   0.000000
   35       22.973800   0.000000
   36       36.616741   0.000000
 
  0.1000000E+00  0.1226005E-16  0.5439394E-17  0.6000000E-02
    1     -105.466566   1.000000
    2      -63.161286   1.000000
    3      -62.952734   1.000000
    4      -62.951285   1.000000
    5      -15.144947   1.000000
    6      -13.042352   1.000000
    7       -2.466432   1.000000
    8        1.179469   1.000000
    9        1.817174   1.000000
   10        1.885276   1.000000
   11        2.451412   1.000000
   12        2.941283   1.000000
   13        3.139605   1.000000
   14        3.991685   1.000000
   15        4.104313   1.000000
   16        4.758532   1.000000
   17        4.793795   1.000000
   18        7.974115   0.000000
   19       12.319590   0.000000
   20       13.432729   0.000000
   21       17.522977   0.000000
   22       18.902277   0.000000
   23       19.891221   0.000000
   24       23.787289   0.000000
   25       24.773823   0.000000
   26       25.699365   0.000000
   27       27.587126   0.000000
   28       27.671502   0.000000
   29       12.979547   0.000000
   30       28.361359   0.000000
   31       13.647344   0.000000
   32       29.493079   0.000000
   33       15.516000   0.000000
   34       30.978939   0.000000
   35       31.362586   0.000000
   36       33.072810   0.000000
 
  0.2000000E+00  0.2599180E-16  0.1235048E-16  0.6000000E-02
    1     -105.465998   1.000000
    2      -63.160386   1.000000
    3      -62.957676   1.000000
    4      -62.952380   1.000000
    5      -14.796518   1.000000
    6      -12.919837   1.000000
    7       -2.144526   1.000000
    8        0.050288   1.000000
    9        1.225530   1.000000
   10        1.623032   1.000000
   11        2.525215   1.000000
   12        2.940907   1.000000
   13        3.000443   1.000000
   14        3.945520   1.000000
   15        4.298053   1.000000
   16        4.614064   1.000000
   17        4.740141   1.000000
   18        8.338583   0.000000
   19       13.195986   0.000000
   20       14.172995   0.000000
   21       17.195016   0.000000
   22       17.702159   0.000000
   23       18.696654   0.000000
   24       19.443552   0.000000
   25       21.684064   0.000000
   26       22.991181   0.000000
   27       14.128924   0.000000
   28       23.448509   0.000000
   29       25.175374   0.000000
   30       27.264852   0.000000
   31       27.837805   0.000000
   32       29.515672   0.000000
   33       31.311759   0.000000
   34       32.000264   0.000000
   35       32.088492   0.000000
   36       34.201607   0.000000
 
  0.3000000E+00  0.2566373E-16  0.5201750E-17  0.6000000E-02
    1     -105.465344   1.000000
    2      -63.159589   1.000000
    3      -62.964321   1.000000
    4      -62.953956   1.000000
    5      -14.293008   1.000000
    6      -12.796779   1.000000
    7       -1.839588   1.000000
    8       -1.091608   1.000000
    9        0.489892   1.000000
   10        1.328606   1.000000
   11        2.340319   1.000000
   12        2.828162   1.000000
   13        3.185766   1.000000
   14        4.246895   1.000000
   15        4.456527   1.000000
   16        4.541231   1.000000
   17        4.677410   1.000000
   18        8.574489   0.000000
   19       13.621541   0.000000
   20       14.422237   0.000000
   21       16.423705   0.000000
   22       16.862158   0.000000
   23       17.858557   0.000000
   24       18.214173   0.000000
   25       20.732460   0.000000
   26       22.976495   0.000000
   27       23.854341   0.000000
   28       25.022054   0.000000
   29       26.556080   0.000000
   30       28.188406   0.000000
   31       30.061788   0.000000
   32       31.409706   0.000000
   33       32.962771   0.000000
   34       34.175657   0.000000
   35       35.264359   0.000000
   36       27.366404   0.000000
 
  0.4000000E+00  0.5198359E-16  0.2470096E-16  0.6000000E-02
    1     -105.464802   1.000000
    2      -63.158971   1.000000
    3      -62.969731   1.000000
    4      -62.955134   1.000000
    5      -13.771775   1.000000
    6      -12.768351   1.000000
    7       -2.003337   1.000000
    8       -1.765511   1.000000
    9        0.250825   1.000000
   10        1.109194   1.000000
   11        2.066523   1.000000
   12        2.688960   1.000000
   13        3.176078   1.000000
   14        4.340815   1.000000
   15        4.629255   1.000000
   16        4.745696   1.000000
   17        5.116471   1.000000
   18        8.523333   0.000000
   19       12.614928   0.000000
   20       13.750903   0.000000
   21       16.649190   0.000000
   22       17.136467   0.000000
   23       17.904327   0.000000
   24       22.410082   0.000000
   25       22.973877   0.000000
   26       23.031050   0.000000
   27       25.876433   0.000000
   28       27.105233   0.000000
   29       28.838127   0.000000
   30       30.730656   0.000000
   31       31.361899   0.000000
   32       33.975647   0.000000
   33       18.158607   0.000000
   34       35.308522   0.000000
   35       31.582467   0.000000
   36       35.487059   0.000000
 
  0.5000000E+00  0.5988408E-16 -0.1585257E-16  0.3000000E-02
    1     -105.464586   1.000000
    2      -63.158679   1.000000
    3      -62.971860   1.000000
    4      -62.955604   1.000000
    5      -13.504056   1.000000
    6      -12.814525   1.000000
    7       -2.301119   1.000000
    8       -1.868840   1.000000
    9        0.296402   1.000000
   10        1.029106   1.000000
   11        1.918134   1.000000
   12        2.635989   1.000000
   13        3.143290   1.000000
   14        4.301384   1.000000
   15        4.611437   1.000000
   16        4.826100   1.000000
   17        5.712021   1.000000
   18        8.317979   0.000000
   19       11.892754   0.000000
   20       13.560760   0.000000
   21       16.810615   0.000000
   22       17.292878   0.000000
   23       18.203936   0.000000
   24       16.853007   0.000000
   25       21.314540   0.000000
   26       21.576008   0.000000
   27       22.912917   0.000000
   28       25.704676   0.000000
   29       11.511354   0.000000
   30       28.639358   0.000000
   31       28.898023   0.000000
   32       31.335988   0.000000
   33       31.419422   0.000000
   34       33.003573   0.000000
   35       33.056561   0.000000
   36       35.725805   0.000000
 
  0.1000000E+00  0.1000000E+00  0.1499307E-16  0.6000000E-02
    1     -105.466558   1.000000
    2      -63.161200   1.000000
    3      -62.952650   1.000000
    4      -62.951133   1.000000
    5      -15.141715   1.000000
    6      -13.048424   1.000000
    7       -2.439593   1.000000
    8        1.172077   1.000000
    9        1.779971   1.000000
   10        1.917008   1.000000
   11        2.417332   1.000000
   12        2.998773   1.000000
   13        3.067592   1.000000
   14        3.991296   1.000000
   15        4.104647   1.000000
   16        4.731515   1.000000
   17        4.839131   1.000000
   18        8.015679   0.000000
   19       12.292588   0.000000
   20       13.406393   0.000000
   21       17.547830   0.000000
   22       18.897604   0.000000
   23       19.894706   0.000000
   24       17.150362   0.000000
   25       21.360991   0.000000
   26       24.030654   0.000000
   27       24.301377   0.000000
   28       25.487093   0.000000
   29       27.031561   0.000000
   30       28.166208   0.000000
   31       28.752625   0.000000
   32       14.891366   0.000000
   33       29.006522   0.000000
   34       31.522688   0.000000
   35       31.822678   0.000000
   36       33.467454   0.000000
 
  0.2000000E+00  0.1000000E+00  0.1085098E-16  0.1200000E-01
    1     -105.466153   1.000000
    2      -63.160597   1.000000
    3      -62.955769   1.000000
    4      -62.952107   1.000000
    5      -14.902533   1.000000
    6      -12.967790   1.000000
    7       -2.190510   1.000000
    8        0.431344   1.000000
    9        1.222728   1.000000
   10        1.871791   1.000000
   11        2.475014   1.000000
   12        2.835854   1.000000
   13        3.011143   1.000000
   14        3.925256   1.000000
   15        4.255261   1.000000
   16        4.632028   1.000000
   17        4.807773   1.000000
   18        8.321082   0.000000
   19       12.917426   0.000000
   20       13.964992   0.000000
   21       17.383826   0.000000
   22       18.000046   0.000000
   23       18.994643   0.000000
   24       18.650283   0.000000
   25       21.552435   0.000000
   26       22.572821   0.000000
   27       23.913879   0.000000
   28       26.073262   0.000000
   29       12.794241   0.000000
   30       26.766910   0.000000
   31       28.246016   0.000000
   32       29.658246   0.000000
   33       31.074774   0.000000
   34       31.614477   0.000000
   35       32.047836   0.000000
   36       32.925091   0.000000
 
  0.3000000E+00  0.1000000E+00  0.4533561E-16  0.1200000E-01
    1     -105.465598   1.000000
    2      -63.159842   1.000000
    3      -62.961667   1.000000
    4      -62.954203   1.000000
    5      -14.471981   1.000000
    6      -12.847236   1.000000
    7       -1.856077   1.000000
    8       -0.547695   1.000000
    9        0.486658   1.000000
   10        1.521868   1.000000
   11        2.357104   1.000000
   12        2.624223   1.000000
   13        3.297455   1.000000
   14        3.902884   1.000000
   15        4.503726   1.000000
   16        4.548054   1.000000
   17        4.717222   1.000000
   18        8.594107   0.000000
   19       13.729789   0.000000
   20       14.889190   0.000000
   21       16.665114   0.000000
   22       16.816310   0.000000
   23       18.359151   0.000000
   24       18.678942   0.000000
   25       22.586001   0.000000
   26       24.178822   0.000000
   27       25.672381   0.000000
   28       26.901447   0.000000
   29       28.166598   0.000000
   30       29.954756   0.000000
   31       17.666488   0.000000
   32       32.007719   0.000000
   33       32.267265   0.000000
   34       33.359352   0.000000
   35       34.809970   0.000000
   36       35.201595   0.000000
 
  0.4000000E+00  0.1000000E+00  0.5918559E-16  0.1200000E-01
    1     -105.464986   1.000000
    2      -63.159138   1.000000
    3      -62.967241   1.000000
    4      -62.955910   1.000000
    5      -13.949039   1.000000
    6      -12.772342   1.000000
    7       -1.725254   1.000000
    8       -1.484967   1.000000
    9        0.168151   1.000000
   10        1.038666   1.000000
   11        2.159051   1.000000
   12        2.417308   1.000000
   13        3.400177   1.000000
   14        4.312369   1.000000
   15        4.410554   1.000000
   16        4.632348   1.000000
   17        4.991266   1.000000
   18        8.663217   0.000000
   19       13.689086   0.000000
   20       14.360426   0.000000
   21       16.548738   0.000000
   22       16.788476   0.000000
   23       17.743568   0.000000
   24       18.450861   0.000000
   25       22.801980   0.000000
   26       15.521453   0.000000
   27       22.279704   0.000000
   28       26.101392   0.000000
   29       27.422931   0.000000
   30       27.499109   0.000000
   31       13.455287   0.000000
   32       30.444267   0.000000
   33       32.414238   0.000000
   34       32.871042   0.000000
   35       34.529348   0.000000
   36       35.332757   0.000000
 
  0.5000000E+00  0.1000000E+00  0.4945753E-16  0.1200000E-01
    1     -105.464614   1.000000
    2      -63.158713   1.000000
    3      -62.970737   1.000000
    4      -62.957052   1.000000
    5      -13.521355   1.000000
    6      -12.802111   1.000000
    7       -2.117813   1.000000
    8       -1.764429   1.000000
    9        0.306970   1.000000
   10        0.637062   1.000000
   11        2.044127   1.000000
   12        2.273742   1.000000
   13        3.340801   1.000000
   14        4.334674   1.000000
   15        4.579581   1.000000
   16        4.658096   1.000000
   17        5.618366   1.000000
   18        8.598208   0.000000
   19       12.362708   0.000000
   20       14.075241   0.000000
   21       16.979164   0.000000
   22       17.246716   0.000000
   23       17.765431   0.000000
   24       18.298849   0.000000
   25       22.801413   0.000000
   26       23.055256   0.000000
   27       26.976988   0.000000
   28       27.478109   0.000000
   29       27.679874   0.000000
   30       31.080103   0.000000
   31       32.762649   0.000000
   32       33.196583   0.000000
   33       33.761169   0.000000
   34       23.330887   0.000000
   35       35.466312   0.000000
   36       20.557938   0.000000
 
 -0.4000000E+00  0.1000000E+00 -0.1797190E-16  0.1200000E-01
    1     -105.464618   1.000000
    2      -63.158701   1.000000
    3      -62.970765   1.000000
    4      -62.957030   1.000000
    5      -13.534610   1.000000
    6      -12.785498   1.000000
    7       -2.141350   1.000000
    8       -1.754209   1.000000
    9        0.225305   1.000000
   10        0.703035   1.000000
   11        2.065070   1.000000
   12        2.313062   1.000000
   13        3.336042   1.000000
   14        4.327814   1.000000
   15        4.581898   1.000000
   16        4.650044   1.000000
   17        5.539566   1.000000
   18        8.759165   0.000000
   19       12.260927   0.000000
   20       14.099695   0.000000
   21       16.790841   0.000000
   22       17.155322   0.000000
   23       17.854098   0.000000
   24       18.401005   0.000000
   25       22.547039   0.000000
   26       23.160599   0.000000
   27       26.952229   0.000000
   28       27.110212   0.000000
   29       28.118164   0.000000
   30       31.196557   0.000000
   31       32.656577   0.000000
   32       33.031575   0.000000
   33       34.144140   0.000000
   34       35.448889   0.000000
   35       28.577909   0.000000
   36       45.037065   0.000000
 
 -0.3000000E+00  0.1000000E+00  0.1527309E-17  0.1200000E-01
    1     -105.464983   1.000000
    2      -63.159031   1.000000
    3      -62.967254   1.000000
    4      -62.955779   1.000000
    5      -13.968003   1.000000
    6      -12.744852   1.000000
    7       -1.832634   1.000000
    8       -1.427368   1.000000
    9        0.097922   1.000000
   10        1.087914   1.000000
   11        2.226226   1.000000
   12        2.500834   1.000000
   13        3.382485   1.000000
   14        4.294781   1.000000
   15        4.383090   1.000000
   16        4.631163   1.000000
   17        4.932774   1.000000
   18        8.808370   0.000000
   19       13.556345   0.000000
   20       14.391668   0.000000
   21       16.309968   0.000000
   22       16.809115   0.000000
   23       17.733204   0.000000
   24       18.586119   0.000000
   25       22.484122   0.000000
   26       23.552529   0.000000
   27       25.818099   0.000000
   28       27.459969   0.000000
   29       12.613286   0.000000
   30       27.927496   0.000000
   31       30.732260   0.000000
   32       32.052559   0.000000
   33       33.174027   0.000000
   34       34.767778   0.000000
   35       35.694200   0.000000
   36       44.872653   0.000000
 
 -0.2000000E+00  0.1000000E+00 -0.4853945E-17  0.1200000E-01
    1     -105.465574   1.000000
    2      -63.159719   1.000000
    3      -62.961519   1.000000
    4      -62.954093   1.000000
    5      -14.487065   1.000000
    6      -12.822119   1.000000
    7       -1.954928   1.000000
    8       -0.520034   1.000000
    9        0.455219   1.000000
   10        1.534209   1.000000
   11        2.497072   1.000000
   12        2.672499   1.000000
   13        3.263299   1.000000
   14        3.903158   1.000000
   15        4.496441   1.000000
   16        4.530649   1.000000
   17        4.705249   1.000000
   18        8.572903   0.000000
   19       13.963276   0.000000
   20       14.481164   0.000000
   21       16.785859   0.000000
   22       16.980991   0.000000
   23       17.992258   0.000000
   24       18.928204   0.000000
   25       21.341039   0.000000
   26       22.333198   0.000000
   27       23.920360   0.000000
   28       25.328280   0.000000
   29       27.276928   0.000000
   30       28.040676   0.000000
   31       30.539948   0.000000
   32       31.656929   0.000000
   33       32.557765   0.000000
   34       33.583983   0.000000
   35       34.694288   0.000000
   36       42.062943   0.000000
 
 -0.1000000E+00  0.1000000E+00  0.8997577E-18  0.6000000E-02
    1     -105.466159   1.000000
    2      -63.160560   1.000000
    3      -62.955789   1.000000
    4      -62.952229   1.000000
    5      -14.912000   1.000000
    6      -12.950560   1.000000
    7       -2.264239   1.000000
    8        0.457516   1.000000
    9        1.214517   1.000000
   10        1.850727   1.000000
   11        2.590863   1.000000
   12        2.919442   1.000000
   13        2.960657   1.000000
   14        3.926766   1.000000
   15        4.254037   1.000000
   16        4.639299   1.000000
   17        4.771339   1.000000
   18        8.232066   0.000000
   19       13.048355   0.000000
   20       13.901667   0.000000
   21       17.370088   0.000000
   22       18.019446   0.000000
   23       18.927957   0.000000
   24       18.872850   0.000000
   25       21.581634   0.000000
   26       15.661620   0.000000
   27       22.597240   0.000000
   28       23.906997   0.000000
   29       26.432484   0.000000
   30       26.489482   0.000000
   31       28.056887   0.000000
   32       29.559548   0.000000
   33       31.290587   0.000000
   34       31.462550   0.000000
   35       32.310882   0.000000
   36       32.742430   0.000000
 
  0.2000000E+00  0.2000000E+00 -0.3054619E-17  0.6000000E-02
    1     -105.465972   1.000000
    2      -63.160167   1.000000
    3      -62.957592   1.000000
    4      -62.952257   1.000000
    5      -14.783752   1.000000
    6      -12.942505   1.000000
    7       -2.046075   1.000000
    8        0.059326   1.000000
    9        1.125551   1.000000
   10        1.724261   1.000000
   11        2.406737   1.000000
   12        2.779249   1.000000
   13        3.048864   1.000000
   14        3.957355   1.000000
   15        4.295908   1.000000
   16        4.532736   1.000000
   17        4.881594   1.000000
   18        8.499687   0.000000
   19       13.057932   0.000000
   20       13.989048   0.000000
   21       17.366292   0.000000
   22       17.776194   0.000000
   23       18.410578   0.000000
   24       15.994090   0.000000
   25       22.192861   0.000000
   26       22.627077   0.000000
   27       22.753838   0.000000
   28       24.376226   0.000000
   29       26.767760   0.000000
   30       29.143434   0.000000
   31       30.837808   0.000000
   32       31.356478   0.000000
   33       32.222339   0.000000
   34       32.671632   0.000000
   35       33.509911   0.000000
   36       43.593140   0.000000
 
  0.3000000E+00  0.2000000E+00  0.7871261E-16  0.1200000E-01
    1     -105.465554   1.000000
    2      -63.159579   1.000000
    3      -62.961509   1.000000
    4      -62.953897   1.000000
    5      -14.461936   1.000000
    6      -12.863665   1.000000
    7       -1.797729   1.000000
    8       -0.495493   1.000000
    9        0.404020   1.000000
   10        1.631832   1.000000
   11        2.265846   1.000000
   12        2.470939   1.000000
   13        3.300946   1.000000
   14        3.923450   1.000000
   15        4.422938   1.000000
   16        4.549070   1.000000
   17        4.840924   1.000000
   18        8.734494   0.000000
   19       13.624430   0.000000
   20       14.558972   0.000000
   21       17.044038   0.000000
   22       17.130002   0.000000
   23       17.625603   0.000000
   24       19.142483   0.000000
   25       21.709216   0.000000
   26       22.092142   0.000000
   27       23.760679   0.000000
   28       14.149312   0.000000
   29       24.866554   0.000000
   30       27.770240   0.000000
   31       28.599382   0.000000
   32       30.958841   0.000000
   33       31.514576   0.000000
   34       32.777029   0.000000
   35       33.745150   0.000000
   36       34.012947   0.000000
 
  0.4000000E+00  0.2000000E+00  0.2882288E-16  0.1200000E-01
    1     -105.465062   1.000000
    2      -63.159254   1.000000
    3      -62.965385   1.000000
    4      -62.956943   1.000000
    5      -14.005326   1.000000
    6      -12.790171   1.000000
    7       -1.663046   1.000000
    8       -0.971561   1.000000
    9       -0.238005   1.000000
   10        1.289672   1.000000
   11        1.860208   1.000000
   12        2.225586   1.000000
   13        3.765990   1.000000
   14        3.808437   1.000000
   15        4.353852   1.000000
   16        4.727308   1.000000
   17        5.015321   1.000000
   18        8.897758   0.000000
   19       14.475957   0.000000
   20       15.437801   0.000000
   21       15.672819   0.000000
   22       16.610563   0.000000
   23       17.166558   0.000000
   24       18.267699   0.000000
   25       17.551377   0.000000
   26       21.627505   0.000000
   27       22.311753   0.000000
   28       24.289411   0.000000
   29       25.737011   0.000000
   30       27.454338   0.000000
   31       29.912097   0.000000
   32       30.008237   0.000000
   33       31.957714   0.000000
   34       33.612266   0.000000
   35       33.895998   0.000000
   36       35.135002   0.000000
 
  0.5000000E+00  0.2000000E+00  0.2425348E-16  0.1200000E-01
    1     -105.464636   1.000000
    2      -63.158710   1.000000
    3      -62.968444   1.000000
    4      -62.959596   1.000000
    5      -13.539516   1.000000
    6      -12.794181   1.000000
    7       -1.717683   1.000000
    8       -1.514792   1.000000
    9       -0.264778   1.000000
   10        0.708890   1.000000
   11        1.645316   1.000000
   12        2.072469   1.000000
   13        3.687960   1.000000
   14        4.207863   1.000000
   15        4.349099   1.000000
   16        4.605199   1.000000
   17        5.539441   1.000000
   18        9.114125   0.000000
   19       13.453881   0.000000
   20       14.995086   0.000000
   21       16.106913   0.000000
   22       16.975143   0.000000
   23       17.181848   0.000000
   24       17.803944   0.000000
   25       18.304855   0.000000
   26       22.663752   0.000000
   27       24.429910   0.000000
   28       25.741619   0.000000
   29       26.917953   0.000000
   30       29.441996   0.000000
   31       31.049032   0.000000
   32       32.813837   0.000000
   33       21.763111   0.000000
   34       33.721236   0.000000
   35       34.353228   0.000000
   36       35.724543   0.000000
 
 -0.4000000E+00  0.2000000E+00  0.7176537E-17  0.1200000E-01
    1     -105.464474   1.000000
    2      -63.158518   1.000000
    3      -62.969426   1.000000
    4      -62.960679   1.000000
    5      -13.314351   1.000000
    6      -12.830479   1.000000
    7       -1.925974   1.000000
    8       -1.566011   1.000000
    9       -0.286110   1.000000
   10        0.489324   1.000000
   11        1.530332   1.000000
   12        2.133117   1.000000
   13        3.640136   1.000000
   14        4.346778   1.000000
   15        4.403996   1.000000
   16        4.519129   1.000000
   17        5.715234   1.000000
   18        9.502291   0.000000
   19       12.412584   0.000000
   20       15.131181   0.000000
   21       15.690721   0.000000
   22       17.232742   0.000000
   23       17.451863   0.000000
   24       18.079036   0.000000
   25       18.607030   0.000000
   26       23.028779   0.000000
   27       24.188299   0.000000
   28       25.396270   0.000000
   29       26.562076   0.000000
   30       29.694090   0.000000
   31       31.353521   0.000000
   32       33.047404   0.000000
   33       33.658457   0.000000
   34       34.056327   0.000000
   35       35.838740   0.000000
   36       26.326602   0.000000
 
 -0.3000000E+00  0.2000000E+00 -0.1325114E-17  0.1200000E-01
    1     -105.464637   1.000000
    2      -63.158650   1.000000
    3      -62.968393   1.000000
    4      -62.959531   1.000000
    5      -13.579305   1.000000
    6      -12.743254   1.000000
    7       -1.859540   1.000000
    8       -1.376655   1.000000
    9       -0.467448   1.000000
   10        0.873411   1.000000
   11        1.507917   1.000000
   12        2.368323   1.000000
   13        3.676560   1.000000
   14        4.191320   1.000000
   15        4.388261   1.000000
   16        4.521770   1.000000
   17        5.397256   1.000000
   18        9.380523   0.000000
   19       13.342478   0.000000
   20       15.171277   0.000000
   21       15.548526   0.000000
   22       16.550718   0.000000
   23       17.470397   0.000000
   24       18.091228   0.000000
   25       22.828163   0.000000
   26       23.768744   0.000000
   27       14.403705   0.000000
   28       25.726913   0.000000
   29       26.500144   0.000000
   30       30.197879   0.000000
   31       31.583713   0.000000
   32       32.455421   0.000000
   33       33.385602   0.000000
   34       34.974602   0.000000
   35       35.313631   0.000000
   36       47.932286   0.000000
 
 -0.2000000E+00  0.2000000E+00  0.5719251E-17  0.6000000E-02
    1     -105.465058   1.000000
    2      -63.159248   1.000000
    3      -62.965356   1.000000
    4      -62.956806   1.000000
    5      -14.041344   1.000000
    6      -12.736967   1.000000
    7       -1.803799   1.000000
    8       -0.959163   1.000000
    9       -0.313302   1.000000
   10        1.298373   1.000000
   11        1.900582   1.000000
   12        2.566439   1.000000
   13        3.710730   1.000000
   14        3.798403   1.000000
   15        4.415480   1.000000
   16        4.615623   1.000000
   17        4.934380   1.000000
   18        8.952725   0.000000
   19       14.740377   0.000000
   20       15.084474   0.000000
   21       15.622040   0.000000
   22       16.235245   0.000000
   23       17.498090   0.000000
   24       18.127890   0.000000
   25       22.296151   0.000000
   26       23.697340   0.000000
   27       26.044828   0.000000
   28       26.717635   0.000000
   29       29.814225   0.000000
   30       17.192552   0.000000
   31       31.033940   0.000000
   32       31.482892   0.000000
   33       18.604934   0.000000
   34       33.840776   0.000000
   35       34.303680   0.000000
   36       34.774958   0.000000
 
  0.3000000E+00  0.3000000E+00  0.3815908E-16  0.6000000E-02
    1     -105.465354   1.000000
    2      -63.159574   1.000000
    3      -62.964429   1.000000
    4      -62.954120   1.000000
    5      -14.262972   1.000000
    6      -12.844181   1.000000
    7       -1.742567   1.000000
    8       -0.941317   1.000000
    9        0.374516   1.000000
   10        1.497753   1.000000
   11        2.111138   1.000000
   12        2.467985   1.000000
   13        3.219796   1.000000
   14        4.260560   1.000000
   15        4.376119   1.000000
   16        4.537906   1.000000
   17        4.909266   1.000000
   18        8.868752   0.000000
   19       13.439594   0.000000
   20       14.162358   0.000000
   21       16.511136   0.000000
   22       17.230412   0.000000
   23       17.601343   0.000000
   24       15.692777   0.000000
   25       21.799364   0.000000
   26       22.737038   0.000000
   27       23.672060   0.000000
   28       24.210477   0.000000
   29       26.811632   0.000000
   30       30.208745   0.000000
   31       30.738520   0.000000
   32       31.525604   0.000000
   33       32.662911   0.000000
   34       33.800249   0.000000
   35       35.631700   0.000000
   36       23.401870   0.000000
 
  0.4000000E+00  0.3000000E+00  0.7976463E-16  0.1200000E-01
    1     -105.464980   1.000000
    2      -63.159048   1.000000
    3      -62.967249   1.000000
    4      -62.955787   1.000000
    5      -13.917721   1.000000
    6      -12.817067   1.000000
    7       -1.853153   1.000000
    8       -1.107445   1.000000
    9        0.022753   1.000000
   10        1.324962   1.000000
   11        1.822225   1.000000
   12        2.184251   1.000000
   13        3.357212   1.000000
   14        4.212384   1.000000
   15        4.370388   1.000000
   16        4.859855   1.000000
   17        5.024660   1.000000
   18        8.980895   0.000000
   19       13.621680   0.000000
   20       14.569308   0.000000
   21       15.824302   0.000000
   22       16.907949   0.000000
   23       17.538606   0.000000
   24       18.903576   0.000000
   25       18.906423   0.000000
   26       21.749599   0.000000
   27       22.820038   0.000000
   28       24.284387   0.000000
   29       25.314468   0.000000