       N       E                     dE             d eps       ncg     rms          rms(c)
DAV:   1    -0.274179771653E+02   -0.27418E+02   -0.47534E-02 10108   0.172E+01    0.633E-01
RMM:   2    -0.274171323489E+02    0.84482E-03   -0.49340E-02 11111   0.834E+00    0.663E-01
RMM:   3    -0.274112595825E+02    0.58728E-02   -0.86052E-03 10434   0.345E+00    0.293E-02
RMM:   4    -0.274113286285E+02   -0.69046E-04   -0.47119E-04 11837   0.332E-01    0.401E-02
RMM:   5    -0.274113277003E+02    0.92822E-06   -0.92889E-05 12273   0.150E-01    0.341E-02
RMM:   6    -0.274113160153E+02    0.11685E-04   -0.13766E-05 11196   0.116E-01    0.197E-02
RMM:   7    -0.274113102504E+02    0.57649E-05   -0.94914E-06 10833   0.101E-01    0.269E-03
RMM:   8    -0.274113109996E+02   -0.74915E-06   -0.73836E-06 11724   0.415E-02    0.131E-03
RMM:   9    -0.274113110846E+02   -0.85032E-07   -0.10364E-06 10259   0.289E-02    0.564E-04
RMM:  10    -0.274113111661E+02   -0.81463E-07   -0.41002E-07  9472   0.213E-02
   1 F= -.27411311E+02 E0= -.27411311E+02  d E =-.829171E-13
