       N       E                     dE             d eps       ncg     rms          rms(c)
DAV:   1     0.415717632298E+03    0.41572E+03   -0.16683E+04 13816   0.307E+03
DAV:   2     0.254826631708E+01   -0.41317E+03   -0.37645E+03 13152   0.834E+02
DAV:   3    -0.303581713334E+02   -0.32906E+02   -0.32527E+02 13800   0.225E+02
DAV:   4    -0.315480772538E+02   -0.11899E+01   -0.11891E+01 13992   0.312E+01
DAV:   5    -0.315945631680E+02   -0.46486E-01   -0.46479E-01 13100   0.570E+00    0.142E+01
RMM:   6    -0.295944169902E+02    0.20001E+01   -0.14102E+01  9088   0.140E+02    0.113E+01
RMM:   7    -0.273695616545E+02    0.22249E+01   -0.47503E+00  9653   0.698E+01    0.324E+00
RMM:   8    -0.273955433278E+02   -0.25982E-01   -0.63470E-01  9641   0.169E+01    0.189E+00
RMM:   9    -0.274039066823E+02   -0.83634E-02   -0.25125E-01 10189   0.820E+00    0.489E-01
RMM:  10    -0.274081466859E+02   -0.42400E-02   -0.74485E-02 10731   0.389E+00    0.174E-01
RMM:  11    -0.274091850570E+02   -0.10384E-02   -0.17980E-02 10651   0.201E+00    0.567E-02
RMM:  12    -0.274096767425E+02   -0.49169E-03   -0.53692E-03 10622   0.118E+00    0.343E-02
RMM:  13    -0.274098857702E+02   -0.20903E-03   -0.18091E-03 10971   0.668E-01    0.188E-02
RMM:  14    -0.274099537324E+02   -0.67962E-04   -0.61120E-04 10961   0.394E-01    0.107E-02
RMM:  15    -0.274099764320E+02   -0.22700E-04   -0.20823E-04 11136   0.222E-01    0.887E-03
RMM:  16    -0.274099860443E+02   -0.96123E-05   -0.78581E-05 11089   0.142E-01    0.714E-03
RMM:  17    -0.274099887544E+02   -0.27101E-05   -0.30981E-05 10947   0.886E-02    0.452E-04
RMM:  18    -0.274099903748E+02   -0.16204E-05   -0.12548E-05 10870   0.539E-02    0.927E-04
RMM:  19    -0.274099911771E+02   -0.80233E-06   -0.55921E-06  9652   0.374E-02    0.123E-03
RMM:  20    -0.274099916521E+02   -0.47495E-06   -0.23940E-06  8699   0.258E-02    0.107E-03
RMM:  21    -0.274099917503E+02   -0.98224E-07   -0.10853E-06  7944   0.183E-02    0.954E-04
RMM:  22    -0.274099918137E+02   -0.63373E-07   -0.47324E-07  7527   0.142E-02
   1 F= -.27409992E+02 E0= -.27409992E+02  d E =-.274100E+02
       N       E                     dE             d eps       ncg     rms          rms(c)
DAV:   1    -0.281303803477E+02   -0.72039E+00   -0.13653E+01  9596   0.226E+02    0.787E+00
RMM:   2    -0.279091743487E+02    0.22121E+00   -0.21376E+00  9070   0.555E+01    0.492E+00
RMM:   3    -0.274016293073E+02    0.50755E+00   -0.89515E-01  9145   0.325E+01    0.182E+00
RMM:   4    -0.274113103716E+02   -0.96811E-02   -0.28559E-01 10169   0.845E+00    0.601E-01
RMM:   5    -0.274126840502E+02   -0.13737E-02   -0.66841E-02 10649   0.412E+00    0.409E-01
RMM:   6    -0.274113242248E+02    0.13598E-02   -0.15421E-02 10101   0.287E+00    0.885E-02
RMM:   7    -0.274123010949E+02   -0.97687E-03   -0.92949E-03 11100   0.126E+00    0.378E-02
RMM:   8    -0.274125088286E+02   -0.20773E-03   -0.20274E-03 11019   0.709E-01    0.293E-02
RMM:   9    -0.274125820404E+02   -0.73212E-04   -0.71573E-04 11165   0.398E-01    0.994E-03
RMM:  10    -0.274126117107E+02   -0.29670E-04   -0.24164E-04 11176   0.249E-01    0.382E-03
RMM:  11    -0.274126251899E+02   -0.13479E-04   -0.98465E-05 11195   0.153E-01    0.320E-03
RMM:  12    -0.274126317740E+02   -0.65840E-05   -0.38298E-05 10967   0.939E-02    0.435E-03
RMM:  13    -0.274126333265E+02   -0.15525E-05   -0.17250E-05 10535   0.653E-02    0.108E-03
RMM:  14    -0.274126349717E+02   -0.16452E-05   -0.73042E-06  9881   0.419E-02    0.156E-03
RMM:  15    -0.274126348328E+02    0.13885E-06   -0.42156E-04  8991   0.291E-02    0.175E-03
RMM:  16    -0.274126350770E+02   -0.24415E-06   -0.13675E-06  8177   0.219E-02    0.186E-03
RMM:  17    -0.274126352401E+02   -0.16319E-06   -0.67032E-07  7600   0.158E-02    0.170E-03
RMM:  18    -0.274126354386E+02   -0.19841E-06   -0.26758E-07  7278   0.125E-02    0.121E-03
RMM:  19    -0.274126354435E+02   -0.49577E-08   -0.13172E-07  7133   0.104E-02
   2 F= -.27412635E+02 E0= -.27412635E+02  d E =-.264363E-02
       N       E                     dE             d eps       ncg     rms          rms(c)
DAV:   1    -0.274810571956E+02   -0.68422E-01   -0.18755E+00  8860   0.109E+02    0.238E+00
RMM:   2    -0.274397929782E+02    0.41264E-01   -0.21909E-01  9495   0.165E+01    0.123E+00
RMM:   3    -0.274173531042E+02    0.22440E-01   -0.11635E-01  9101   0.118E+01    0.800E-01
RMM:   4    -0.274159647136E+02    0.13884E-02   -0.45693E-02 10290   0.388E+00    0.188E-01
RMM:   5    -0.274168015649E+02   -0.83685E-03   -0.13177E-02 10849   0.208E+00    0.106E-01
RMM:   6    -0.274169068893E+02   -0.10532E-03   -0.27690E-03 10146   0.130E+00    0.548E-02
RMM:   7    -0.274170381984E+02   -0.13131E-03   -0.15997E-03 10890   0.601E-01    0.250E-02
RMM:   8    -0.274170891770E+02   -0.50979E-04   -0.45479E-04 11166   0.350E-01    0.133E-02
RMM:   9    -0.274171164329E+02   -0.27256E-04   -0.15518E-04 10858   0.237E-01    0.118E-02
RMM:  10    -0.274171223500E+02   -0.59172E-05   -0.52244E-05 10704   0.128E-01    0.542E-03
RMM:  11    -0.274171272766E+02   -0.49266E-05   -0.21325E-05 10358   0.819E-02    0.297E-03
RMM:  12    -0.274171498361E+02   -0.22559E-04   -0.10881E-05  9862   0.569E-02    0.292E-03
RMM:  13    -0.274171298588E+02    0.19977E-04   -0.12677E-02  8846   0.406E-02    0.167E-03
RMM:  14    -0.274171301490E+02   -0.29021E-06   -0.15259E-06  8202   0.244E-02    0.153E-03
RMM:  15    -0.274171303776E+02   -0.22863E-06   -0.79552E-07  7563   0.198E-02    0.154E-03
RMM:  16    -0.274171303404E+02    0.37219E-07   -0.34158E-07  7339   0.142E-02
   3 F= -.27417130E+02 E0= -.27417130E+02  d E =-.449490E-02
       N       E                     dE             d eps       ncg     rms          rms(c)
DAV:   1    -0.274178374478E+02   -0.70707E-03   -0.30438E-02  9836   0.143E+01    0.284E-01
RMM:   2    -0.274174497701E+02    0.38768E-03   -0.51991E-03  9409   0.263E+00    0.165E-01
RMM:   3    -0.274171059630E+02    0.34381E-03   -0.22317E-03  9521   0.160E+00    0.929E-02
RMM:   4    -0.274171308975E+02   -0.24934E-04   -0.10920E-03 10530   0.485E-01    0.237E-02
RMM:   5    -0.274171362025E+02   -0.53050E-05   -0.20459E-04 10787   0.240E-01    0.793E-03
RMM:   6    -0.274171449708E+02   -0.87682E-05   -0.61002E-05 10403   0.162E-01    0.413E-03
RMM:   7    -0.274171470149E+02   -0.20441E-05   -0.21827E-05 10604   0.826E-02    0.148E-03
RMM:   8    -0.274171474952E+02   -0.48035E-06   -0.57368E-06  9752   0.454E-02    0.496E-04
RMM:   9    -0.274171477280E+02   -0.23271E-06   -0.21007E-06  8864   0.289E-02    0.426E-04
RMM:  10    -0.274171478441E+02   -0.11614E-06   -0.83283E-07  8004   0.220E-02    0.214E-04
RMM:  11    -0.274171478579E+02   -0.13784E-07   -0.31946E-07  7530   0.148E-02
   4 F= -.27417148E+02 E0= -.27417148E+02  d E =-.175175E-04
       N       E                     dE             d eps       ncg     rms          rms(c)
DAV:   1    -0.274177105962E+02   -0.56275E-03   -0.12481E-02  9168   0.772E+00    0.206E-01
RMM:   2    -0.274174200267E+02    0.29057E-03   -0.15604E-03  9106   0.148E+00    0.115E-01
RMM:   3    -0.274171899677E+02    0.23006E-03   -0.75590E-04  9099   0.979E-01    0.632E-02
RMM:   4    -0.274171778820E+02    0.12086E-04   -0.19812E-04 10161   0.296E-01    0.156E-02
RMM:   5    -0.274171821849E+02   -0.43029E-05   -0.76658E-05 10533   0.146E-01    0.951E-03
RMM:   6    -0.274171820157E+02    0.16917E-06   -0.16352E-05  9822   0.971E-02    0.455E-03
RMM:   7    -0.274171827854E+02   -0.76972E-06   -0.92956E-06 10120   0.460E-02    0.209E-03
RMM:   8    -0.274171830560E+02   -0.27054E-06   -0.23224E-06  9155   0.292E-02    0.950E-04
RMM:   9    -0.274171831743E+02   -0.11828E-06   -0.81825E-07  8169   0.196E-02    0.468E-04
RMM:  10    -0.274171832098E+02   -0.35552E-07   -0.27091E-07  7600   0.136E-02
   5 F= -.27417183E+02 E0= -.27417183E+02  d E =-.353519E-04
       N       E                     dE             d eps       ncg     rms          rms(c)
DAV:   1    -0.274172444570E+02   -0.61283E-04   -0.12735E-03  9296   0.242E+00    0.680E-02
RMM:   2    -0.274172122667E+02    0.32190E-04   -0.17987E-04  9083   0.513E-01    0.393E-02
RMM:   3    -0.274171858172E+02    0.26449E-04   -0.85289E-05  9099   0.334E-01    0.200E-02
RMM:   4    -0.274171851498E+02    0.66745E-06   -0.22709E-05 10033   0.910E-02    0.578E-03
RMM:   5    -0.274171858450E+02   -0.69519E-06   -0.77247E-06  9829   0.481E-02    0.283E-03
RMM:   6    -0.274171858550E+02   -0.10002E-07   -0.17999E-06  8761   0.319E-02    0.145E-03
RMM:   7    -0.274171859594E+02   -0.10443E-06   -0.99077E-07  8646   0.172E-02    0.438E-04
RMM:   8    -0.274171860122E+02   -0.52812E-07   -0.24077E-07  7614   0.125E-02
   6 F= -.27417186E+02 E0= -.27417186E+02  d E =-.280242E-05
       N       E                     dE             d eps       ncg     rms          rms(c)
DAV:   1    -0.274171859649E+02   -0.54943E-08   -0.91393E-05 10516   0.544E-01    0.679E-03
RMM:   2    -0.274171860385E+02   -0.73564E-07   -0.74518E-06  8912   0.917E-02    0.429E-03
RMM:   3    -0.274171861418E+02   -0.10335E-06   -0.32646E-06  9088   0.487E-02    0.309E-03
RMM:   4    -0.274171860778E+02    0.63978E-07   -0.90234E-07  8169   0.227E-02
   7 F= -.27417186E+02 E0= -.27417186E+02  d E =-.656155E-07
       N       E                     dE             d eps       ncg     rms          rms(c)
DAV:   1    -0.274172349729E+02   -0.48831E-04   -0.15506E-03  9420   0.269E+00    0.694E-02
RMM:   2    -0.274172087149E+02    0.26258E-04   -0.25760E-04  9128   0.630E-01    0.423E-02
RMM:   3    -0.274410782735E+02   -0.23870E-01   -0.11426E-04  9332   0.377E-01    0.957E-02
RMM:   4    -0.274171894295E+02    0.23889E-01   -0.67184E-02  9932   0.187E-01    0.928E-03
RMM:   5    -0.274171823707E+02    0.70588E-05   -0.14455E-05 10110   0.584E-02    0.608E-03
RMM:   6    -0.274171831172E+02   -0.74654E-06   -0.30151E-06  9360   0.375E-02    0.964E-03
RMM:   7    -0.274171826043E+02    0.51294E-06   -0.11291E-06  8478   0.226E-02    0.742E-03
RMM:   8    -0.274171820496E+02    0.55471E-06   -0.40784E-07  7930   0.149E-02    0.545E-03
RMM:   9    -0.274171819954E+02    0.54168E-07   -0.13748E-07  7474   0.118E-02
   8 F= -.27417182E+02 E0= -.27417182E+02  d E =0.408244E-05
       N       E                     dE             d eps       ncg     rms          rms(c)
DAV:   1    -0.274172283543E+02   -0.46305E-04   -0.10915E-03 10952   0.199E+00    0.582E-02
RMM:   2    -0.274172066303E+02    0.21724E-04   -0.16073E-04  9000   0.497E-01    0.361E-02
RMM:   3    -0.274171854242E+02    0.21206E-04   -0.71304E-05  9247   0.300E-01    0.164E-02
RMM:   4    -0.274171851228E+02    0.30146E-06   -0.18710E-05  9763   0.736E-02    0.475E-03
RMM:   5    -0.274171855613E+02   -0.43858E-06   -0.60334E-06  9822   0.397E-02    0.208E-03
RMM:   6    -0.274171856388E+02   -0.77445E-07   -0.14575E-06  8692   0.279E-02    0.143E-03
RMM:   7    -0.274171857117E+02   -0.72874E-07   -0.70912E-07  8360   0.156E-02
   9 F= -.27417186E+02 E0= -.27417186E+02  d E =-.371627E-05
       N       E                     dE             d eps       ncg     rms          rms(c)
DAV:   1    -0.274171856126E+02    0.26170E-07   -0.64137E-05 11128   0.139E-01    0.413E-03
RMM:   2    -0.274171855246E+02    0.88016E-07   -0.14079E-06  8627   0.472E-02    0.211E-03
RMM:   3    -0.274171855121E+02    0.12497E-07   -0.72417E-07  8478   0.235E-02
  10 F= -.27417186E+02 E0= -.27417185E+02  d E =0.199558E-06
       N       E                     dE             d eps       ncg     rms          rms(c)
DAV:   1    -0.274171852202E+02    0.30438E-06   -0.53135E-05 11156   0.110E-01    0.278E-03
RMM:   2    -0.274171852166E+02    0.35834E-08   -0.62196E-07  8457   0.317E-02
  11 F= -.27417185E+02 E0= -.27417185E+02  d E =0.295470E-06
       N       E                     dE             d eps       ncg     rms          rms(c)
DAV:   1    -0.274171996551E+02   -0.14435E-04   -0.10264E-03 11872   0.132E+00    0.346E-02
RMM:   2    -0.274171942463E+02    0.54088E-05   -0.86340E-05  9181   0.338E-01    0.248E-02
RMM:   3    -0.274171852827E+02    0.89636E-05   -0.32217E-05  9327   0.195E-01    0.960E-03
RMM:   4    -0.274171856226E+02   -0.33993E-06   -0.12622E-05  9821   0.388E-02    0.244E-03
RMM:   5    -0.274171855912E+02    0.31413E-07   -0.10136E-06  8897   0.252E-02    0.143E-03
RMM:   6    -0.274171856703E+02   -0.79105E-07   -0.44308E-07  8098   0.194E-02
  12 F= -.27417186E+02 E0= -.27417186E+02  d E =-.453661E-06
       N       E                     dE             d eps       ncg     rms          rms(c)
DAV:   1    -0.274171896892E+02   -0.40980E-05   -0.49511E-04 11140   0.800E-01    0.194E-02
RMM:   2    -0.274171881448E+02    0.15443E-05   -0.25849E-05  8882   0.208E-01    0.130E-02
RMM:   3    -0.274171859034E+02    0.22414E-05   -0.13032E-05  9294   0.113E-01    0.568E-03
RMM:   4    -0.274171860427E+02   -0.13929E-06   -0.42319E-06  9136   0.298E-02    0.145E-03
RMM:   5    -0.274171860091E+02    0.33602E-07   -0.76820E-07  8258   0.204E-02
  13 F= -.27417186E+02 E0= -.27417186E+02  d E =-.338795E-06
       N       E                     dE             d eps       ncg     rms          rms(c)
DAV:   1    -0.274171889013E+02   -0.28586E-05   -0.89943E-05 11084   0.568E-01    0.140E-02
RMM:   2    -0.274171876329E+02    0.12684E-05   -0.11299E-05  8835   0.136E-01    0.940E-03
RMM:   3    -0.274171863182E+02    0.13147E-05   -0.43786E-06  8757   0.771E-02    0.391E-03
RMM:   4    -0.274171862737E+02    0.44525E-07   -0.10534E-06  8403   0.190E-02    0.962E-04
RMM:   5    -0.274171863236E+02   -0.49869E-07   -0.21835E-07  7488   0.142E-02
  14 F= -.27417186E+02 E0= -.27417186E+02  d E =-.314471E-06
       N       E                     dE             d eps       ncg     rms          rms(c)
DAV:   1    -0.274171865158E+02   -0.24208E-06   -0.41896E-06  8812   0.139E-01    0.330E-03
RMM:   2    -0.274171864218E+02    0.94024E-07   -0.61841E-07  7943   0.307E-02
  15 F= -.27417186E+02 E0= -.27417186E+02  d E =-.981900E-07
       N       E                     dE             d eps       ncg     rms          rms(c)
DAV:   1    -0.274171863901E+02    0.12564E-06   -0.25022E-06 11592   0.406E-02    0.512E-04
RMM:   2    -0.274171863999E+02   -0.97543E-08    0.77936E-09  5709   0.380E-03
  16 F= -.27417186E+02 E0= -.27417186E+02  d E =0.218597E-07
