 vasp.5.4.4.18Apr17-6-g9f103f2a35 (build Dec 13 2019 19:06:22) complex          
  
 executed on             LinuxIFC date 2021.07.02  07:35:00
 running on   12 total cores
 distrk:  each k-point on   12 cores,    1 groups
 distr:  one band on NCORES_PER_BAND=   6 cores,    2 groups


--------------------------------------------------------------------------------------------------------


 INCAR:
 POTCAR:    PAW_PBE Cu_sv_GW 05Dec2013            
 POTCAR:    PAW_PBE Al_GW 19Mar2012               
 POTCAR:    PAW_PBE O_GW 28Sep2005                
 POTCAR:    PAW_PBE Cu_sv_GW 05Dec2013            
   VRHFIN =Cu: d10 p1                                                           
   LEXCH  = PE                                                                  
   EATOM  =  5382.7943 eV,  395.6242 Ry                                         
                                                                                
   TITEL  = PAW_PBE Cu_sv_GW 05Dec2013                                          
   LULTRA =        F    use ultrasoft PP ?                                      
   IUNSCR =        1    unscreen: 0-lin 1-nonlin 2-no                           
   RPACOR =    1.400    partial core radius                                     
   POMASS =   63.546; ZVAL   =   19.000    mass and valenz                      
   RCORE  =    1.900    outmost cutoff radius                                   
   RWIGS  =    2.100; RWIGS  =    1.111    wigner-seitz radius (au A)           
   ENMAX  =  391.688; ENMIN  =  293.766 eV                                      
   RCLOC  =    1.304    cutoff for local pot                                    
   LCOR   =        T    correct aug charges                                     
   LPAW   =        T    paw PP                                                  
   EAUG   =  982.892                                                            
   RMAX   =    1.950    core radius for proj-oper                               
   RAUG   =    1.300    factor for augmentation sphere                          
   RDEP   =    2.025    radius for radial grids                                 
   RDEPT  =    1.600    core radius for aug-charge                              
                                                                                
   Atomic configuration                                                         
    9 entries                                                                   
     n  l   j            E        occ.                                          
     1  0  0.50     -8850.2467   2.0000                                         
     2  0  0.50     -1062.3498   2.0000                                         
     2  1  1.50      -916.8226   6.0000                                         
     3  0  0.50      -114.6929   2.0000                                         
     4  0  0.50        -4.6097   1.0000                                         
     3  1  1.50       -72.1325   6.0000                                         
     3  1  1.50       -76.2144   0.0000                                         
     3  2  2.50        -5.0394  10.0000                                         
     4  3  2.50        -1.3606   0.0000                                         
   Description                                                                  
     l       E           TYP  RCUT    TYP  RCUT                                 
     0   -114.6929173     23  1.330                                             
     0     -4.6097111     23  1.700                                             
     0    204.0873900     23  1.330                                             
     1    -72.1324964     23  1.650                                             
     1    -76.2143949     23  1.650                                             
     1    136.0582600     23  1.650                                             
     2     -5.0393943     23  1.900                                             
     2     27.2116520     23  1.900                                             
     2    136.0582600     23  1.900                                             
     3     27.2116520     23  1.900                                             
     3    136.0582600     23  1.900                                             
  local pseudopotential read in
  partial core-charges read in
  partial kinetic energy density read in
  kinetic energy density of atom read in
  atomic valenz-charges read in
  non local Contribution for L=           0  read in
    real space projection operators read in
  non local Contribution for L=           0  read in
    real space projection operators read in
  non local Contribution for L=           0  read in
    real space projection operators read in
  non local Contribution for L=           1  read in
    real space projection operators read in
  non local Contribution for L=           1  read in
    real space projection operators read in
  non local Contribution for L=           1  read in
    real space projection operators read in
  non local Contribution for L=           2  read in
    real space projection operators read in
  non local Contribution for L=           2  read in
    real space projection operators read in
  non local Contribution for L=           2  read in
    real space projection operators read in
  non local Contribution for L=           3  read in
    real space projection operators read in
  non local Contribution for L=           3  read in
    real space projection operators read in
    PAW grid and wavefunctions read in
 
   number of l-projection  operators is LMAX  =          11
   number of lm-projection operators is LMMAX =          41
 
 POTCAR:    PAW_PBE Al_GW 19Mar2012               
   VRHFIN =Al: s2p1                                                             
   LEXCH  = PE                                                                  
   EATOM  =    53.5387 eV,    3.9350 Ry                                         
                                                                                
   TITEL  = PAW_PBE Al_GW 19Mar2012                                             
   LULTRA =        F    use ultrasoft PP ?                                      
   IUNSCR =        1    unscreen: 0-lin 1-nonlin 2-no                           
   RPACOR =    1.500    partial core radius                                     
   POMASS =   26.982; ZVAL   =    3.000    mass and valenz                      
   RCORE  =    2.000    outmost cutoff radius                                   
   RWIGS  =    2.000; RWIGS  =    1.058    wigner-seitz radius (au A)           
   ENMAX  =  240.300; ENMIN  =  180.225 eV                                      
   ICORE  =        3    local potential                                         
   LCOR   =        T    correct aug charges                                     
   LPAW   =        T    paw PP                                                  
   EAUG   =  482.059                                                            
   DEXC   =    0.000                                                            
   RMAX   =    2.051    core radius for proj-oper                               
   RAUG   =    1.300    factor for augmentation sphere                          
   RDEP   =    2.096    radius for radial grids                                 
   RDEPT  =    1.856    core radius for aug-charge                              
                                                                                
   Atomic configuration                                                         
    7 entries                                                                   
     n  l   j            E        occ.                                          
     1  0  0.50     -1511.1048   2.0000                                         
     2  0  0.50      -108.1629   2.0000                                         
     2  1  1.50       -69.6402   6.0000                                         
     3  0  0.50        -7.7528   2.0000                                         
     3  1  1.50        -2.7121   1.0000                                         
     3  2  2.50        -2.7212   0.0000                                         
     4  3  2.50        -2.7212   0.0000                                         
   Description                                                                  
     l       E           TYP  RCUT    TYP  RCUT                                 
     0     -7.7528455     23  1.900                                             
     0     68.0291300     23  1.900                                             
     1     -2.7120682     23  1.900                                             
     1     68.0291300     23  1.900                                             
     2     -1.3605826     23  1.900                                             
     2     81.6349560     23  1.900                                             
     3     74.8320430     23  2.000                                             
  local pseudopotential read in
  partial core-charges read in
  partial kinetic energy density read in
  kinetic energy density of atom read in
  atomic valenz-charges read in
  non local Contribution for L=           0  read in
    real space projection operators read in
  non local Contribution for L=           0  read in
    real space projection operators read in
  non local Contribution for L=           1  read in
    real space projection operators read in
  non local Contribution for L=           1  read in
    real space projection operators read in
  non local Contribution for L=           2  read in
    real space projection operators read in
  non local Contribution for L=           2  read in
    real space projection operators read in
    PAW grid and wavefunctions read in
 
   number of l-projection  operators is LMAX  =           6
   number of lm-projection operators is LMMAX =          18
 
 POTCAR:    PAW_PBE O_GW 28Sep2005                
   VRHFIN =O: s2p4                                                              
   LEXCH  = PE                                                                  
   EATOM  =   432.3788 eV,   31.7789 Ry                                         
                                                                                
   TITEL  = PAW_PBE O_GW 28Sep2005                                              
   LULTRA =        F    use ultrasoft PP ?                                      
   IUNSCR =        0    unscreen: 0-lin 1-nonlin 2-no                           
   RPACOR =    0.000    partial core radius                                     
   POMASS =   16.000; ZVAL   =    6.000    mass and valenz                      
   RCORE  =    1.520    outmost cutoff radius                                   
   RWIGS  =    1.550; RWIGS  =    0.820    wigner-seitz radius (au A)           
   ENMAX  =  414.635; ENMIN  =  310.976 eV                                      
   ICORE  =        2    local potential                                         
   LCOR   =        T    correct aug charges                                     
   LPAW   =        T    paw PP                                                  
   EAUG   =  605.392                                                            
   DEXC   =    0.000                                                            
   RMAX   =    1.553    core radius for proj-oper                               
   RAUG   =    1.300    factor for augmentation sphere                          
   RDEP   =    1.550    radius for radial grids                                 
   RDEPT  =    1.329    core radius for aug-charge                              
                                                                                
   Atomic configuration                                                         
    4 entries                                                                   
     n  l   j            E        occ.                                          
     1  0  0.50      -514.6923   2.0000                                         
     2  0  0.50       -23.9615   2.0000                                         
     2  1  0.50        -9.0305   4.0000                                         
     3  2  1.50        -9.5241   0.0000                                         
   Description                                                                  
     l       E           TYP  RCUT    TYP  RCUT                                 
     0    -23.9615316     23  1.200                                             
     0     81.6349560     23  1.200                                             
     1     -9.0304908     23  1.520                                             
     1     81.6349560     23  1.520                                             
     2     -9.5240782      7  1.500                                             
  local pseudopotential read in
  kinetic energy density of atom read in
  atomic valenz-charges read in
  non local Contribution for L=           0  read in
    real space projection operators read in
  non local Contribution for L=           0  read in
    real space projection operators read in
  non local Contribution for L=           1  read in
    real space projection operators read in
  non local Contribution for L=           1  read in
    real space projection operators read in
    PAW grid and wavefunctions read in
 
   number of l-projection  operators is LMAX  =           4
   number of lm-projection operators is LMMAX =           8
 

 ----------------------------------------------------------------------------- 
|                                                                             |
|  ADVICE TO THIS USER RUNNING 'VASP/VAMP'   (HEAR YOUR MASTER'S VOICE ...):  |
|                                                                             |
|      You enforced a specific xc-type in the INCAR file,                     |
|      a different type was found on the POTCAR file                          |
|          I HOPE YOU KNOW, WHAT YOU ARE  DOING                               |
|                                                                             |
 ----------------------------------------------------------------------------- 

  PAW_PBE Cu_sv_GW 05Dec2013            :
 energy of atom  1       EATOM=-5382.7943
 kinetic energy error for atom=    0.0943 (will be added to EATOM!!)
  PAW_PBE Al_GW 19Mar2012               :
 energy of atom  2       EATOM=  -53.5387
 kinetic energy error for atom=    0.0002 (will be added to EATOM!!)
  PAW_PBE O_GW 28Sep2005                :
 energy of atom  3       EATOM= -432.3788
 kinetic energy error for atom=    0.0194 (will be added to EATOM!!)
 
 
 POSCAR: CuAlO2 BenkoF84                         
  positions in direct lattice
  No initial velocities read in
 exchange correlation table for  LEXCH =       14
   RHO(1)=    0.500       N(1)  =     2000
   RHO(2)=  100.500       N(2)  =     4000
 


--------------------------------------------------------------------------------------------------------


 ion  position               nearest neighbor table
   1  0.000  0.000  0.000-   3 1.86   4 1.86
   2  0.500  0.500  0.500-   3 1.91   4 1.91   3 1.91   3 1.91   4 1.91   4 1.91
   3  0.110  0.110  0.110-   1 1.86   2 1.91   2 1.91   2 1.91
   4  0.890  0.890  0.890-   1 1.86   2 1.91   2 1.91   2 1.91
 
  LATTYP: Found a trigonal (rhomboedric) cell.
 ALAT       =     5.8870541721
 COS(alpha) =     0.8819730727
  
  Lattice vectors:
  
 A1 = (   1.4301236400,   0.8256822700,   5.6506992500)
 A2 = (  -1.4301236400,   0.8256822700,   5.6506992500)
 A3 = (   0.0000000000,  -1.6513645300,   5.6506992500)


Analysis of symmetry for initial positions (statically):
=====================================================================
 Subroutine PRICEL returns:
 Original cell was already a primitive cell.
 

 Routine SETGRP: Setting up the symmetry group for a 
 trigonal (rhombohedral) supercell.


 Subroutine GETGRP returns: Found 12 space group operations
 (whereof 12 operations were pure point group operations)
 out of a pool of 12 trial point group operations.


The static configuration has the point symmetry D_3d.


Analysis of symmetry for dynamics (positions and initial velocities):
=====================================================================
 Subroutine PRICEL returns:
 Original cell was already a primitive cell.
 

 Routine SETGRP: Setting up the symmetry group for a 
 trigonal (rhombohedral) supercell.


 Subroutine GETGRP returns: Found 12 space group operations
 (whereof 12 operations were pure point group operations)
 out of a pool of 12 trial point group operations.


The dynamic configuration has the point symmetry D_3d.


 Subroutine INISYM returns: Found 12 space group operations
 (whereof 12 operations are pure point group operations),
 and found     1 'primitive' translations

 
 
 KPOINTS: CuMO2                                   

Automatic generation of k-mesh.
Space group operators:
 irot       det(A)        alpha          n_x          n_y          n_z        tau_x        tau_y        tau_z
    1     1.000000     0.000000     1.000000     0.000000     0.000000     0.000000     0.000000     0.000000
    2    -1.000000     0.000000     1.000000     0.000000     0.000000     0.000000     0.000000     0.000000
    3     1.000000   180.000000    -0.500000     0.866025    -0.000000     0.000000     0.000000     0.000000
    4    -1.000000   180.000000    -0.500000     0.866025    -0.000000     0.000000     0.000000     0.000000
    5     1.000000   120.000000     0.000000    -0.000000    -1.000000     0.000000     0.000000     0.000000
    6    -1.000000   120.000000     0.000000    -0.000000    -1.000000     0.000000     0.000000     0.000000
    7     1.000000   180.000000     1.000000     0.000000     0.000000     0.000000     0.000000     0.000000
    8    -1.000000   180.000000     1.000000     0.000000     0.000000     0.000000     0.000000     0.000000
    9     1.000000   120.000000     0.000000     0.000000     1.000000     0.000000     0.000000     0.000000
   10    -1.000000   120.000000     0.000000     0.000000     1.000000     0.000000     0.000000     0.000000
   11     1.000000   180.000000     0.500000     0.866025    -0.000000     0.000000     0.000000     0.000000
   12    -1.000000   180.000000     0.500000     0.866025    -0.000000     0.000000     0.000000     0.000000
 
 Subroutine IBZKPT returns following result:
 ===========================================
 
 Found    116 irreducible k-points:
 
 Following reciprocal coordinates:
            Coordinates               Weight
  0.000000  0.000000  0.000000      1.000000
  0.100000 -0.000000  0.000000      6.000000
  0.200000  0.000000 -0.000000      6.000000
  0.300000  0.000000  0.000000      6.000000
  0.400000  0.000000 -0.000000      6.000000
  0.500000  0.000000  0.000000      3.000000
  0.100000  0.100000  0.000000      6.000000
  0.200000  0.100000  0.000000     12.000000
  0.300000  0.100000  0.000000     12.000000
  0.400000  0.100000  0.000000     12.000000
  0.500000  0.100000  0.000000     12.000000
 -0.400000  0.100000 -0.000000     12.000000
 -0.300000  0.100000  0.000000     12.000000
 -0.200000  0.100000  0.000000     12.000000
 -0.100000  0.100000  0.000000      6.000000
  0.200000  0.200000  0.000000      6.000000
  0.300000  0.200000  0.000000     12.000000
  0.400000  0.200000  0.000000     12.000000
  0.500000  0.200000  0.000000     12.000000
 -0.400000  0.200000 -0.000000     12.000000
 -0.300000  0.200000 -0.000000     12.000000
 -0.200000  0.200000 -0.000000      6.000000
  0.300000  0.300000  0.000000      6.000000
  0.400000  0.300000  0.000000     12.000000
  0.500000  0.300000  0.000000     12.000000
 -0.400000  0.300000 -0.000000     12.000000
 -0.300000  0.300000 -0.000000      6.000000
  0.400000  0.400000  0.000000      6.000000
  0.500000  0.400000  0.000000     12.000000
 -0.400000  0.400000 -0.000000      6.000000
  0.500000  0.500000  0.000000      3.000000
  0.100000  0.100000  0.100000      2.000000
  0.200000  0.100000  0.100000      6.000000
  0.300000  0.100000  0.100000      6.000000
  0.400000  0.100000  0.100000      6.000000
  0.500000  0.100000  0.100000      6.000000
 -0.400000  0.100000  0.100000      6.000000
 -0.300000  0.100000  0.100000      6.000000
 -0.200000  0.100000  0.100000      6.000000
 -0.100000  0.100000  0.100000      6.000000
  0.200000  0.200000  0.100000      6.000000
  0.300000  0.200000  0.100000     12.000000
  0.400000  0.200000  0.100000     12.000000
  0.500000  0.200000  0.100000     12.000000
 -0.400000  0.200000  0.100000     12.000000
 -0.300000  0.200000  0.100000     12.000000
 -0.200000  0.200000  0.100000     12.000000
 -0.100000  0.200000  0.100000     12.000000
  0.300000  0.300000  0.100000      6.000000
  0.400000  0.300000  0.100000     12.000000
  0.500000  0.300000  0.100000     12.000000
 -0.400000  0.300000  0.100000     12.000000
 -0.300000  0.300000  0.100000     12.000000
 -0.200000  0.300000  0.100000     12.000000
 -0.100000  0.300000  0.100000     12.000000
  0.400000  0.400000  0.100000      6.000000
  0.500000  0.400000  0.100000     12.000000
 -0.400000  0.400000  0.100000     12.000000
 -0.300000  0.400000  0.100000     12.000000
 -0.200000  0.400000  0.100000     12.000000
 -0.100000  0.400000  0.100000     12.000000
  0.500000  0.500000  0.100000      6.000000
 -0.400000  0.500000  0.100000     12.000000
 -0.300000  0.500000  0.100000     12.000000
 -0.200000  0.500000  0.100000     12.000000
 -0.100000  0.500000  0.100000      6.000000
 -0.400000 -0.400000  0.100000      6.000000
 -0.300000 -0.400000  0.100000     12.000000
 -0.200000 -0.400000  0.100000     12.000000
 -0.300000 -0.300000  0.100000      6.000000
 -0.200000 -0.300000  0.100000     12.000000
 -0.200000 -0.200000  0.100000      6.000000
  0.200000  0.200000  0.200000      2.000000
  0.300000  0.200000  0.200000      6.000000
  0.400000  0.200000  0.200000      6.000000
  0.500000  0.200000  0.200000      6.000000
 -0.400000  0.200000  0.200000      6.000000
 -0.300000  0.200000  0.200000      6.000000
 -0.200000  0.200000  0.200000      6.000000
  0.300000  0.300000  0.200000      6.000000
  0.400000  0.300000  0.200000     12.000000
  0.500000  0.300000  0.200000     12.000000
 -0.400000  0.300000  0.200000     12.000000
 -0.300000  0.300000  0.200000     12.000000
 -0.200000  0.300000  0.200000     12.000000
  0.400000  0.400000  0.200000      6.000000
  0.500000  0.400000  0.200000     12.000000
 -0.400000  0.400000  0.200000     12.000000
 -0.300000  0.400000  0.200000     12.000000
 -0.200000  0.400000  0.200000     12.000000
  0.500000  0.500000  0.200000      6.000000
 -0.400000  0.500000  0.200000     12.000000
 -0.300000  0.500000  0.200000     12.000000
 -0.200000  0.500000  0.200000      6.000000
 -0.400000 -0.400000  0.200000      6.000000
 -0.300000 -0.400000  0.200000     12.000000
 -0.300000 -0.300000  0.200000      6.000000
  0.300000  0.300000  0.300000      2.000000
  0.400000  0.300000  0.300000      6.000000
  0.500000  0.300000  0.300000      6.000000
 -0.400000  0.300000  0.300000      6.000000
 -0.300000  0.300000  0.300000      6.000000
  0.400000  0.400000  0.300000      6.000000
  0.500000  0.400000  0.300000     12.000000
 -0.400000  0.400000  0.300000     12.000000
 -0.300000  0.400000  0.300000     12.000000
  0.500000  0.500000  0.300000      6.000000
 -0.400000  0.500000  0.300000     12.000000
 -0.300000  0.500000  0.300000      6.000000
 -0.400000 -0.400000  0.300000      6.000000
  0.400000  0.400000  0.400000      2.000000
  0.500000  0.400000  0.400000      6.000000
 -0.400000  0.400000  0.400000      6.000000
  0.500000  0.500000  0.400000      6.000000
 -0.400000  0.500000  0.400000      6.000000
  0.500000  0.500000  0.500000      1.000000
 
 Following cartesian coordinates:
            Coordinates               Weight
  0.000000  0.000000  0.000000      1.000000
  0.034962  0.020185  0.005899      6.000000
  0.069924  0.040371  0.011798      6.000000
  0.104886  0.060556  0.017697      6.000000
  0.139848  0.080741  0.023596      6.000000
  0.174810  0.100927  0.029495      3.000000
 -0.000000  0.040371  0.011798      6.000000
  0.034962  0.060556  0.017697     12.000000
  0.069924  0.080741  0.023596     12.000000
  0.104886  0.100927  0.029495     12.000000
  0.139848  0.121112  0.035394     12.000000
 -0.174810 -0.060556 -0.017697     12.000000
 -0.139848 -0.040371 -0.011798     12.000000
 -0.104886 -0.020185 -0.005899     12.000000
 -0.069924 -0.000000  0.000000      6.000000
  0.000000  0.080741  0.023596      6.000000
  0.034962  0.100927  0.029495     12.000000
  0.069924  0.121112  0.035394     12.000000
  0.104886  0.141297  0.041293     12.000000
 -0.209772 -0.040371 -0.011798     12.000000
 -0.174810 -0.020185 -0.005899     12.000000
 -0.139848  0.000000  0.000000      6.000000
  0.000000  0.121112  0.035394      6.000000
  0.034962  0.141297  0.041293     12.000000
  0.069924  0.161483  0.047192     12.000000
 -0.244734 -0.020185 -0.005899     12.000000
 -0.209772  0.000000  0.000000      6.000000
  0.000000  0.161483  0.047192      6.000000
  0.034962  0.181668  0.053091     12.000000
 -0.279696  0.000000  0.000000      6.000000
  0.000000  0.201853  0.058990      3.000000
 -0.000000  0.000000  0.017697      2.000000
  0.034962  0.020185  0.023596      6.000000
  0.069924  0.040371  0.029495      6.000000
  0.104886  0.060556  0.035394      6.000000
  0.139848  0.080741  0.041293      6.000000
 -0.174810 -0.100927 -0.011798      6.000000
 -0.139848 -0.080741 -0.005899      6.000000
 -0.104886 -0.060556  0.000000      6.000000
 -0.069924 -0.040371  0.005899      6.000000
  0.000000  0.040371  0.029495      6.000000
  0.034962  0.060556  0.035394     12.000000
  0.069924  0.080741  0.041293     12.000000
  0.104886  0.100927  0.047192     12.000000
 -0.209772 -0.080741 -0.005899     12.000000
 -0.174810 -0.060556  0.000000     12.000000
 -0.139848 -0.040371  0.005899     12.000000
 -0.104886 -0.020185  0.011798     12.000000
  0.000000  0.080741  0.041293      6.000000
  0.034962  0.100927  0.047192     12.000000
  0.069924  0.121112  0.053091     12.000000
 -0.244734 -0.060556  0.000000     12.000000
 -0.209772 -0.040371  0.005899     12.000000
 -0.174810 -0.020185  0.011798     12.000000
 -0.139848 -0.000000  0.017697     12.000000
  0.000000  0.121112  0.053091      6.000000
  0.034962  0.141297  0.058990     12.000000
 -0.279696 -0.040371  0.005899     12.000000
 -0.244734 -0.020185  0.011798     12.000000
 -0.209772 -0.000000  0.017697     12.000000
 -0.174810  0.020185  0.023596     12.000000
 -0.000000  0.161483  0.064889      6.000000
 -0.314658 -0.020185  0.011798     12.000000
 -0.279696 -0.000000  0.017697     12.000000
 -0.244734  0.020185  0.023596     12.000000
 -0.209772  0.040371  0.029495      6.000000
  0.000000 -0.201853 -0.041293      6.000000
  0.034962 -0.181668 -0.035394     12.000000
  0.069924 -0.161483 -0.029495     12.000000
  0.000000 -0.161483 -0.029495      6.000000
  0.034962 -0.141297 -0.023596     12.000000
  0.000000 -0.121112 -0.017697      6.000000
  0.000000  0.000000  0.035394      2.000000
  0.034962  0.020185  0.041293      6.000000
  0.069924  0.040371  0.047192      6.000000
  0.104886  0.060556  0.053091      6.000000
 -0.209772 -0.121112  0.000000      6.000000
 -0.174810 -0.100927  0.005899      6.000000
 -0.139848 -0.080741  0.011798      6.000000
 -0.000000  0.040371  0.047192      6.000000
  0.034962  0.060556  0.053091     12.000000
  0.069924  0.080741  0.058990     12.000000
 -0.244734 -0.100927  0.005899     12.000000
 -0.209772 -0.080741  0.011798     12.000000
 -0.174810 -0.060556  0.017697     12.000000
  0.000000  0.080741  0.058990      6.000000
  0.034962  0.100927  0.064889     12.000000
 -0.279696 -0.080741  0.011798     12.000000
 -0.244734 -0.060556  0.017697     12.000000
 -0.209772 -0.040371  0.023596     12.000000
  0.000000  0.121112  0.070788      6.000000
 -0.314658 -0.060556  0.017697     12.000000
 -0.279696 -0.040371  0.023596     12.000000
 -0.244734 -0.020185  0.029495      6.000000
  0.000000 -0.242224 -0.035394      6.000000
  0.034962 -0.222039 -0.029495     12.000000
  0.000000 -0.201853 -0.023596      6.000000
  0.000000  0.000000  0.053091      2.000000
  0.034962  0.020185  0.058990      6.000000
  0.069924  0.040371  0.064889      6.000000
 -0.244734 -0.141297  0.011798      6.000000
 -0.209772 -0.121112  0.017697      6.000000
  0.000000  0.040371  0.064889      6.000000
  0.034962  0.060556  0.070788     12.000000
 -0.279696 -0.121112  0.017697     12.000000
 -0.244734 -0.100927  0.023596     12.000000
  0.000000  0.080741  0.076687      6.000000
 -0.314658 -0.100927  0.023596     12.000000
 -0.279696 -0.080741  0.029495      6.000000
  0.000000 -0.282595 -0.029495      6.000000
  0.000000  0.000000  0.070788      2.000000
  0.034962  0.020185  0.076687      6.000000
 -0.279696 -0.161483  0.023596      6.000000
  0.000000  0.040371  0.082586      6.000000
 -0.314658 -0.141297  0.029495      6.000000
  0.000000  0.000000  0.088485      1.000000
 


--------------------------------------------------------------------------------------------------------




 Dimension of arrays:
   k-points           NKPTS =    116   k-points in BZ     NKDIM =    116   number of bands    NBANDS=     36
   number of dos      NEDOS =    301   number of ions     NIONS =      4
   non local maximal  LDIM  =     11   non local SUM 2l+1 LMDIM =     41
   total plane-waves  NPLWV = 110592
   max r-space proj   IRMAX =      1   max aug-charges    IRDMAX= 107698
   dimension x,y,z NGX =    48 NGY =   48 NGZ =   48
   dimension x,y,z NGXF=    96 NGYF=   96 NGZF=   96
   support grid    NGXF=    96 NGYF=   96 NGZF=   96
   ions per type =               1   1   2
   NGX,Y,Z   is equivalent  to a cutoff of  13.55, 13.55, 13.55 a.u.
   NGXF,Y,Z  is equivalent  to a cutoff of  27.11, 27.11, 27.11 a.u.

 SYSTEM =  unknown system                          
 POSCAR =  CuAlO2 BenkoF84                         

 Startparameter for this run:
   NWRITE =      2    write-flag & timer
   PREC   = accura    normal or accurate (medium, high low for compatibility)
   ISTART =      0    job   : 0-new  1-cont  2-samecut
   ICHARG =      2    charge: 1-file 2-atom 10-const
   ISPIN  =      1    spin polarized calculation?
   LNONCOLLINEAR =      F non collinear calculations
   LSORBIT =      F    spin-orbit coupling
   INIWAV =      1    electr: 0-lowe 1-rand  2-diag
   LASPH  =      F    aspherical Exc in radial PAW
   METAGGA=      F    non-selfconsistent MetaGGA calc.

 Electronic Relaxation 1
   ENCUT  =  550.0 eV  40.42 Ry    6.36 a.u.  11.26 11.26 11.26*2*pi/ulx,y,z
   ENINI  =  550.0     initial cutoff
   ENAUG  =  982.9 eV  augmentation charge cutoff
   NELM   =     60;   NELMIN=  2; NELMDL= -5     # of ELM steps 
   EDIFF  = 0.1E-06   stopping-criterion for ELM
   LREAL  =      F    real-space projection
   NLSPLINE    = F    spline interpolate recip. space projectors
   LCOMPAT=      F    compatible to vasp.4.4
   GGA_COMPAT  = T    GGA compatible to vasp.4.4-vasp.4.6
   LMAXPAW     = -100 max onsite density
   LMAXMIX     =    2 max onsite mixed and CHGCAR
   VOSKOWN=      0    Vosko Wilk Nusair interpolation
   ROPT   =    0.00000   0.00000   0.00000
 Ionic relaxation
   EDIFFG = -.3E-02   stopping-criterion for IOM
   NSW    =     50    number of steps for IOM
   NBLOCK =      1;   KBLOCK =     50    inner block; outer block 
   IBRION =      1    ionic relax: 0-MD 1-quasi-New 2-CG
   NFREE  =      0    steps in history (QN), initial steepest desc. (CG)
   ISIF   =      3    stress and relaxation
   IWAVPR =     11    prediction:  0-non 1-charg 2-wave 3-comb
   ISYM   =      2    0-nonsym 1-usesym 2-fastsym
   LCORR  =      T    Harris-Foulkes like correction to forces

   POTIM  = 0.5000    time-step for ionic-motion
   TEIN   =    0.0    initial temperature
   TEBEG  =    0.0;   TEEND  =   0.0 temperature during run
   SMASS  =  -3.00    Nose mass-parameter (am)
   estimated Nose-frequenzy (Omega)   =  0.10E-29 period in steps =****** mass=  -0.792E-27a.u.
   SCALEE = 1.0000    scale energy and forces
   NPACO  =    256;   APACO  = 16.0  distance and # of slots for P.C.
   PSTRESS=    0.0 pullay stress

  Mass of Ions in am
   POMASS =  63.55 26.98 16.00
  Ionic Valenz
   ZVAL   =  19.00  3.00  6.00
  Atomic Wigner-Seitz radii
   RWIGS  =  -1.00 -1.00 -1.00
  virtual crystal weights 
   VCA    =   1.00  1.00  1.00
   NELECT =      34.0000    total number of electrons
   NUPDOWN=      -1.0000    fix difference up-down

 DOS related values:
   EMIN   =  10.00;   EMAX   =-10.00  energy-range for DOS
   EFERMI =   0.00
   ISMEAR =     0;   SIGMA  =   0.20  broadening in eV -4-tet -1-fermi 0-gaus

 Electronic relaxation 2 (details)
   IALGO  =     68    algorithm
   LDIAG  =      T    sub-space diagonalisation (order eigenvalues)
   LSUBROT=      F    optimize rotation matrix (better conditioning)
   TURBO    =      0    0=normal 1=particle mesh
   IRESTART =      0    0=no restart 2=restart with 2 vectors
   NREBOOT  =      0    no. of reboots
   NMIN     =      0    reboot dimension
   EREF     =   0.00    reference energy to select bands
   IMIX   =      4    mixing-type and parameters
     AMIX     =   0.40;   BMIX     =  1.00
     AMIX_MAG =   1.60;   BMIX_MAG =  1.00
     AMIN     =   0.10
     WC   =   100.;   INIMIX=   1;  MIXPRE=   1;  MAXMIX= -45

 Intra band minimization:
   WEIMIN = 0.0010     energy-eigenvalue tresh-hold
   EBREAK =  0.69E-09  absolut break condition
   DEPER  =   0.30     relativ break condition  

   TIME   =   0.40     timestep for ELM

  volume/ion in A,a.u.               =      10.01        67.54
  Fermi-wavevector in a.u.,A,eV,Ry     =   1.550319  2.929679 32.701464  2.403490
  Thomas-Fermi vector in A             =   2.655000
 
 Write flags
   LWAVE        =      T    write WAVECAR
   LDOWNSAMPLE  =      F    k-point downsampling of WAVECAR
   LCHARG       =      T    write CHGCAR
   LVTOT        =      F    write LOCPOT, total local potential
   LVHAR        =      F    write LOCPOT, Hartree potential only
   LELF         =      F    write electronic localiz. function (ELF)
   LORBIT       =      0    0 simple, 1 ext, 2 COOP (PROOUT), +10 PAW based schemes


 Dipole corrections
   LMONO  =      F    monopole corrections only (constant potential shift)
   LDIPOL =      F    correct potential (dipole corrections)
   IDIPOL =      0    1-x, 2-y, 3-z, 4-all directions 
   EPSILON=  1.0000000 bulk dielectric constant

 Exchange correlation treatment:
   GGA     =    PS    GGA type
   LEXCH   =    14    internal setting for exchange type
   VOSKOWN=      0    Vosko Wilk Nusair interpolation
   LHFCALC =     F    Hartree Fock is set to
   LHFONE  =     F    Hartree Fock one center treatment
   AEXX    =    0.0000 exact exchange contribution

 Linear response parameters
   LEPSILON=     F    determine dielectric tensor
   LRPA    =     F    only Hartree local field effects (RPA)
   LNABLA  =     F    use nabla operator in PAW spheres
   LVEL    =     F    velocity operator in full k-point grid
   LINTERFAST=   F  fast interpolation
   KINTER  =     0    interpolate to denser k-point grid
   CSHIFT  =0.1000    complex shift for real part using Kramers Kronig
   OMEGAMAX=  -1.0    maximum frequency
   DEG_THRESHOLD= 0.2000000E-02 threshold for treating states as degnerate
   RTIME   =   -0.100 relaxation time in fs
  (WPLASMAI=    0.000 imaginary part of plasma frequency in eV, 0.658/RTIME)
   DFIELD  = 0.0000000 0.0000000 0.0000000 field for delta impulse in time
 
 Orbital magnetization related:
   ORBITALMAG=     F  switch on orbital magnetization
   LCHIMAG   =     F  perturbation theory with respect to B field
   DQ        =  0.001000  dq finite difference perturbation B field
   LLRAUG    =     F  two centre corrections for induced B field



--------------------------------------------------------------------------------------------------------


 quasi-Newton-method for relaxation of ions
 charge density and potential will be updated during run
 non-spin polarized calculation
 RMM-DIIS sequential band-by-band and
  variant of blocked Davidson during initial phase
 perform sub-space diagonalisation
    before iterative eigenvector-optimisation
 modified Broyden-mixing scheme, WC =      100.0
 initial mixing is a Kerker type mixing with AMIX =  0.4000 and BMIX =      1.0000
 Hartree-type preconditioning will be used
 using additional bands           19
 reciprocal scheme for non local part
 use partial core corrections
 calculate Harris-corrections to forces 
   (improved forces if not selfconsistent)
 use gradient corrections 
 use of overlap-Matrix (Vanderbilt PP)
 Gauss-broadening in eV      SIGMA  =   0.20


--------------------------------------------------------------------------------------------------------


  energy-cutoff  :      550.00
  volume of cell :       40.04
      direct lattice vectors                 reciprocal lattice vectors
     1.430123640  0.825682270  5.650699250     0.349620121  0.201853271  0.058989749
    -1.430123640  0.825682270  5.650699250    -0.349620121  0.201853271  0.058989749
     0.000000000 -1.651364530  5.650699250    -0.000000000 -0.403706543  0.058989750

  length of vectors
     5.887054174  5.887054174  5.887054172     0.407993582  0.407993582  0.407993582


 
 k-points in units of 2pi/SCALE and weight: CuMO2                                   
   0.00000000  0.00000000  0.00000000       0.001
   0.03496201  0.02018533  0.00589897       0.006
   0.06992402  0.04037065  0.01179795       0.006
   0.10488604  0.06055598  0.01769692       0.006
   0.13984805  0.08074131  0.02359590       0.006
   0.17481006  0.10092664  0.02949487       0.003
  -0.00000000  0.04037065  0.01179795       0.006
   0.03496201  0.06055598  0.01769692       0.012
   0.06992402  0.08074131  0.02359590       0.012
   0.10488604  0.10092664  0.02949487       0.012
   0.13984805  0.12111196  0.03539385       0.012
  -0.17481006 -0.06055598 -0.01769692       0.012
  -0.13984805 -0.04037065 -0.01179795       0.012
  -0.10488604 -0.02018533 -0.00589897       0.012
  -0.06992402  0.00000000  0.00000000       0.006
   0.00000000  0.08074131  0.02359590       0.006
   0.03496201  0.10092664  0.02949487       0.012
   0.06992402  0.12111196  0.03539385       0.012
   0.10488604  0.14129729  0.04129282       0.012
  -0.20977207 -0.04037065 -0.01179795       0.012
  -0.17481006 -0.02018533 -0.00589897       0.012
  -0.13984805  0.00000000 -0.00000000       0.006
   0.00000000  0.12111196  0.03539385       0.006
   0.03496201  0.14129729  0.04129282       0.012
   0.06992402  0.16148262  0.04719180       0.012
  -0.24473408 -0.02018533 -0.00589897       0.012
  -0.20977207  0.00000000 -0.00000000       0.006
   0.00000000  0.16148262  0.04719180       0.006
   0.03496201  0.18166794  0.05309077       0.012
  -0.27969610  0.00000000 -0.00000000       0.006
   0.00000000  0.20185327  0.05898975       0.003
  -0.00000000  0.00000000  0.01769692       0.002
   0.03496201  0.02018533  0.02359590       0.006
   0.06992402  0.04037065  0.02949487       0.006
   0.10488604  0.06055598  0.03539385       0.006
   0.13984805  0.08074131  0.04129282       0.006
  -0.17481006 -0.10092664 -0.01179795       0.006
  -0.13984805 -0.08074131 -0.00589897       0.006
  -0.10488604 -0.06055598  0.00000000       0.006
  -0.06992402 -0.04037065  0.00589897       0.006
   0.00000000  0.04037065  0.02949487       0.006
   0.03496201  0.06055598  0.03539385       0.012
   0.06992402  0.08074131  0.04129282       0.012
   0.10488604  0.10092664  0.04719180       0.012
  -0.20977207 -0.08074131 -0.00589897       0.012
  -0.17481006 -0.06055598  0.00000000       0.012
  -0.13984805 -0.04037065  0.00589897       0.012
  -0.10488604 -0.02018533  0.01179795       0.012
   0.00000000  0.08074131  0.04129282       0.006
   0.03496201  0.10092664  0.04719180       0.012
   0.06992402  0.12111196  0.05309077       0.012
  -0.24473408 -0.06055598  0.00000000       0.012
  -0.20977207 -0.04037065  0.00589897       0.012
  -0.17481006 -0.02018533  0.01179795       0.012
  -0.13984805 -0.00000000  0.01769692       0.012
   0.00000000  0.12111196  0.05309077       0.006
   0.03496201  0.14129729  0.05898975       0.012
  -0.27969610 -0.04037065  0.00589897       0.012
  -0.24473408 -0.02018533  0.01179795       0.012
  -0.20977207 -0.00000000  0.01769692       0.012
  -0.17481006  0.02018533  0.02359590       0.012
  -0.00000000  0.16148262  0.06488872       0.006
  -0.31465811 -0.02018533  0.01179795       0.012
  -0.27969610 -0.00000000  0.01769692       0.012
  -0.24473408  0.02018533  0.02359590       0.012
  -0.20977207  0.04037065  0.02949487       0.006
  -0.00000000 -0.20185327 -0.04129282       0.006
   0.03496201 -0.18166794 -0.03539385       0.012
   0.06992402 -0.16148262 -0.02949487       0.012
  -0.00000000 -0.16148262 -0.02949487       0.006
   0.03496201 -0.14129729 -0.02359590       0.012
  -0.00000000 -0.12111196 -0.01769692       0.006
   0.00000000 -0.00000000  0.03539385       0.002
   0.03496201  0.02018533  0.04129282       0.006
   0.06992402  0.04037065  0.04719180       0.006
   0.10488604  0.06055598  0.05309077       0.006
  -0.20977207 -0.12111196  0.00000000       0.006
  -0.17481006 -0.10092664  0.00589898       0.006
  -0.13984805 -0.08074131  0.01179795       0.006
  -0.00000000  0.04037065  0.04719180       0.006
   0.03496201  0.06055598  0.05309077       0.012
   0.06992402  0.08074131  0.05898975       0.012
  -0.24473408 -0.10092664  0.00589898       0.012
  -0.20977207 -0.08074131  0.01179795       0.012
  -0.17481006 -0.06055598  0.01769692       0.012
   0.00000000  0.08074131  0.05898975       0.006
   0.03496201  0.10092664  0.06488872       0.012
  -0.27969610 -0.08074131  0.01179795       0.012
  -0.24473408 -0.06055598  0.01769692       0.012
  -0.20977207 -0.04037065  0.02359590       0.012
   0.00000000  0.12111196  0.07078770       0.006
  -0.31465811 -0.06055598  0.01769692       0.012
  -0.27969610 -0.04037065  0.02359590       0.012
  -0.24473408 -0.02018533  0.02949487       0.006
  -0.00000000 -0.24222393 -0.03539385       0.006
   0.03496201 -0.22203860 -0.02949487       0.012
  -0.00000000 -0.20185327 -0.02359590       0.006
   0.00000000  0.00000000  0.05309077       0.002
   0.03496201  0.02018533  0.05898975       0.006
   0.06992402  0.04037065  0.06488872       0.006
  -0.24473408 -0.14129729  0.01179795       0.006
  -0.20977207 -0.12111196  0.01769692       0.006
   0.00000000  0.04037065  0.06488872       0.006
   0.03496201  0.06055598  0.07078770       0.012
  -0.27969610 -0.12111196  0.01769692       0.012
  -0.24473408 -0.10092664  0.02359590       0.012
   0.00000000  0.08074131  0.07668667       0.006
  -0.31465811 -0.10092664  0.02359590       0.012
  -0.27969610 -0.08074131  0.02949487       0.006
  -0.00000000 -0.28259458 -0.02949487       0.006
   0.00000000 -0.00000000  0.07078770       0.002
   0.03496201  0.02018533  0.07668667       0.006
  -0.27969610 -0.16148262  0.02359590       0.006
   0.00000000  0.04037065  0.08258565       0.006
  -0.31465811 -0.14129729  0.02949487       0.006
   0.00000000  0.00000000  0.08848462       0.001
 
 k-points in reciprocal lattice and weights: CuMO2                                   
   0.00000000  0.00000000  0.00000000       0.001
   0.10000000 -0.00000000  0.00000000       0.006
   0.20000000  0.00000000 -0.00000000       0.006
   0.30000000  0.00000000  0.00000000       0.006
   0.40000000  0.00000000 -0.00000000       0.006
   0.50000000  0.00000000  0.00000000       0.003
   0.10000000  0.10000000  0.00000000       0.006
   0.20000000  0.10000000  0.00000000       0.012
   0.30000000  0.10000000  0.00000000       0.012
   0.40000000  0.10000000  0.00000000       0.012
   0.50000000  0.10000000  0.00000000       0.012
  -0.40000000  0.10000000 -0.00000000       0.012
  -0.30000000  0.10000000  0.00000000       0.012
  -0.20000000  0.10000000  0.00000000       0.012
  -0.10000000  0.10000000  0.00000000       0.006
   0.20000000  0.20000000  0.00000000       0.006
   0.30000000  0.20000000  0.00000000       0.012
   0.40000000  0.20000000  0.00000000       0.012
   0.50000000  0.20000000  0.00000000       0.012
  -0.40000000  0.20000000 -0.00000000       0.012
  -0.30000000  0.20000000 -0.00000000       0.012
  -0.20000000  0.20000000 -0.00000000       0.006
   0.30000000  0.30000000  0.00000000       0.006
   0.40000000  0.30000000  0.00000000       0.012
   0.50000000  0.30000000  0.00000000       0.012
  -0.40000000  0.30000000 -0.00000000       0.012
  -0.30000000  0.30000000 -0.00000000       0.006
   0.40000000  0.40000000  0.00000000       0.006
   0.50000000  0.40000000  0.00000000       0.012
  -0.40000000  0.40000000 -0.00000000       0.006
   0.50000000  0.50000000  0.00000000       0.003
   0.10000000  0.10000000  0.10000000       0.002
   0.20000000  0.10000000  0.10000000       0.006
   0.30000000  0.10000000  0.10000000       0.006
   0.40000000  0.10000000  0.10000000       0.006
   0.50000000  0.10000000  0.10000000       0.006
  -0.40000000  0.10000000  0.10000000       0.006
  -0.30000000  0.10000000  0.10000000       0.006
  -0.20000000  0.10000000  0.10000000       0.006
  -0.10000000  0.10000000  0.10000000       0.006
   0.20000000  0.20000000  0.10000000       0.006
   0.30000000  0.20000000  0.10000000       0.012
   0.40000000  0.20000000  0.10000000       0.012
   0.50000000  0.20000000  0.10000000       0.012
  -0.40000000  0.20000000  0.10000000       0.012
  -0.30000000  0.20000000  0.10000000       0.012
  -0.20000000  0.20000000  0.10000000       0.012
  -0.10000000  0.20000000  0.10000000       0.012
   0.30000000  0.30000000  0.10000000       0.006
   0.40000000  0.30000000  0.10000000       0.012
   0.50000000  0.30000000  0.10000000       0.012
  -0.40000000  0.30000000  0.10000000       0.012
  -0.30000000  0.30000000  0.10000000       0.012
  -0.20000000  0.30000000  0.10000000       0.012
  -0.10000000  0.30000000  0.10000000       0.012
   0.40000000  0.40000000  0.10000000       0.006
   0.50000000  0.40000000  0.10000000       0.012
  -0.40000000  0.40000000  0.10000000       0.012
  -0.30000000  0.40000000  0.10000000       0.012
  -0.20000000  0.40000000  0.10000000       0.012
  -0.10000000  0.40000000  0.10000000       0.012
   0.50000000  0.50000000  0.10000000       0.006
  -0.40000000  0.50000000  0.10000000       0.012
  -0.30000000  0.50000000  0.10000000       0.012
  -0.20000000  0.50000000  0.10000000       0.012
  -0.10000000  0.50000000  0.10000000       0.006
  -0.40000000 -0.40000000  0.10000000       0.006
  -0.30000000 -0.40000000  0.10000000       0.012
  -0.20000000 -0.40000000  0.10000000       0.012
  -0.30000000 -0.30000000  0.10000000       0.006
  -0.20000000 -0.30000000  0.10000000       0.012
  -0.20000000 -0.20000000  0.10000000       0.006
   0.20000000  0.20000000  0.20000000       0.002
   0.30000000  0.20000000  0.20000000       0.006
   0.40000000  0.20000000  0.20000000       0.006
   0.50000000  0.20000000  0.20000000       0.006
  -0.40000000  0.20000000  0.20000000       0.006
  -0.30000000  0.20000000  0.20000000       0.006
  -0.20000000  0.20000000  0.20000000       0.006
   0.30000000  0.30000000  0.20000000       0.006
   0.40000000  0.30000000  0.20000000       0.012
   0.50000000  0.30000000  0.20000000       0.012
  -0.40000000  0.30000000  0.20000000       0.012
  -0.30000000  0.30000000  0.20000000       0.012
  -0.20000000  0.30000000  0.20000000       0.012
   0.40000000  0.40000000  0.20000000       0.006
   0.50000000  0.40000000  0.20000000       0.012
  -0.40000000  0.40000000  0.20000000       0.012
  -0.30000000  0.40000000  0.20000000       0.012
  -0.20000000  0.40000000  0.20000000       0.012
   0.50000000  0.50000000  0.20000000       0.006
  -0.40000000  0.50000000  0.20000000       0.012
  -0.30000000  0.50000000  0.20000000       0.012
  -0.20000000  0.50000000  0.20000000       0.006
  -0.40000000 -0.40000000  0.20000000       0.006
  -0.30000000 -0.40000000  0.20000000       0.012
  -0.30000000 -0.30000000  0.20000000       0.006
   0.30000000  0.30000000  0.30000000       0.002
   0.40000000  0.30000000  0.30000000       0.006
   0.50000000  0.30000000  0.30000000       0.006
  -0.40000000  0.30000000  0.30000000       0.006
  -0.30000000  0.30000000  0.30000000       0.006
   0.40000000  0.40000000  0.30000000       0.006
   0.50000000  0.40000000  0.30000000       0.012
  -0.40000000  0.40000000  0.30000000       0.012
  -0.30000000  0.40000000  0.30000000       0.012
   0.50000000  0.50000000  0.30000000       0.006
  -0.40000000  0.50000000  0.30000000       0.012
  -0.30000000  0.50000000  0.30000000       0.006
  -0.40000000 -0.40000000  0.30000000       0.006
   0.40000000  0.40000000  0.40000000       0.002
   0.50000000  0.40000000  0.40000000       0.006
  -0.40000000  0.40000000  0.40000000       0.006
   0.50000000  0.50000000  0.40000000       0.006
  -0.40000000  0.50000000  0.40000000       0.006
   0.50000000  0.50000000  0.50000000       0.001
 
 position of ions in fractional coordinates (direct lattice) 
   0.00000000  0.00000000  0.00000000
   0.50000000  0.50000000  0.50000000
   0.10979000  0.10979000  0.10979000
   0.89021000  0.89021000  0.89021000
 
 position of ions in cartesian coordinates  (Angst):
   0.00000000  0.00000000  0.00000000
   0.00000000  0.00000001  8.47604888
  -0.00000000  0.00000000  1.86117081
  -0.00000000  0.00000001 15.09092694
 


--------------------------------------------------------------------------------------------------------


 k-point  1 :   0.0000 0.0000 0.0000  plane waves:    1197
 k-point  2 :   0.1000-0.0000 0.0000  plane waves:    1203
 k-point  3 :   0.2000 0.0000-0.0000  plane waves:    1182
 k-point  4 :   0.3000 0.0000 0.0000  plane waves:    1167
 k-point  5 :   0.4000 0.0000-0.0000  plane waves:    1168
 k-point  6 :   0.5000 0.0000 0.0000  plane waves:    1150
 k-point  7 :   0.1000 0.1000 0.0000  plane waves:    1203
 k-point  8 :   0.2000 0.1000 0.0000  plane waves:    1183
 k-point  9 :   0.3000 0.1000 0.0000  plane waves:    1178
 k-point 10 :   0.4000 0.1000 0.0000  plane waves:    1165
 k-point 11 :   0.5000 0.1000 0.0000  plane waves:    1164
 k-point 12 :  -0.4000 0.1000-0.0000  plane waves:    1166
 k-point 13 :  -0.3000 0.1000 0.0000  plane waves:    1172
 k-point 14 :  -0.2000 0.1000 0.0000  plane waves:    1171
 k-point 15 :  -0.1000 0.1000 0.0000  plane waves:    1179
 k-point 16 :   0.2000 0.2000 0.0000  plane waves:    1175
 k-point 17 :   0.3000 0.2000 0.0000  plane waves:    1174
 k-point 18 :   0.4000 0.2000 0.0000  plane waves:    1171
 k-point 19 :   0.5000 0.2000 0.0000  plane waves:    1166
 k-point 20 :  -0.4000 0.2000-0.0000  plane waves:    1166
 k-point 21 :  -0.3000 0.2000-0.0000  plane waves:    1166
 k-point 22 :  -0.2000 0.2000-0.0000  plane waves:    1173
 k-point 23 :   0.3000 0.3000 0.0000  plane waves:    1175
 k-point 24 :   0.4000 0.3000 0.0000  plane waves:    1169
 k-point 25 :   0.5000 0.3000 0.0000  plane waves:    1172
 k-point 26 :  -0.4000 0.3000-0.0000  plane waves:    1173
 k-point 27 :  -0.3000 0.3000-0.0000  plane waves:    1166
 k-point 28 :   0.4000 0.4000 0.0000  plane waves:    1170
 k-point 29 :   0.5000 0.4000 0.0000  plane waves:    1163
 k-point 30 :  -0.4000 0.4000-0.0000  plane waves:    1174
 k-point 31 :   0.5000 0.5000 0.0000  plane waves:    1162
 k-point 32 :   0.1000 0.1000 0.1000  plane waves:    1191
 k-point 33 :   0.2000 0.1000 0.1000  plane waves:    1194
 k-point 34 :   0.3000 0.1000 0.1000  plane waves:    1183
 k-point 35 :   0.4000 0.1000 0.1000  plane waves:    1172
 k-point 36 :   0.5000 0.1000 0.1000  plane waves:    1161
 k-point 37 :  -0.4000 0.1000 0.1000  plane waves:    1158
 k-point 38 :  -0.3000 0.1000 0.1000  plane waves:    1168
 k-point 39 :  -0.2000 0.1000 0.1000  plane waves:    1175
 k-point 40 :  -0.1000 0.1000 0.1000  plane waves:    1180
 k-point 41 :   0.2000 0.2000 0.1000  plane waves:    1197
 k-point 42 :   0.3000 0.2000 0.1000  plane waves:    1183
 k-point 43 :   0.4000 0.2000 0.1000  plane waves:    1180
 k-point 44 :   0.5000 0.2000 0.1000  plane waves:    1169
 k-point 45 :  -0.4000 0.2000 0.1000  plane waves:    1165
 k-point 46 :  -0.3000 0.2000 0.1000  plane waves:    1166
 k-point 47 :  -0.2000 0.2000 0.1000  plane waves:    1169
 k-point 48 :  -0.1000 0.2000 0.1000  plane waves:    1171
 k-point 49 :   0.3000 0.3000 0.1000  plane waves:    1177
 k-point 50 :   0.4000 0.3000 0.1000  plane waves:    1170
 k-point 51 :   0.5000 0.3000 0.1000  plane waves:    1183
 k-point 52 :  -0.4000 0.3000 0.1000  plane waves:    1169
 k-point 53 :  -0.3000 0.3000 0.1000  plane waves:    1165
 k-point 54 :  -0.2000 0.3000 0.1000  plane waves:    1170
 k-point 55 :  -0.1000 0.3000 0.1000  plane waves:    1173
 k-point 56 :   0.4000 0.4000 0.1000  plane waves:    1177
 k-point 57 :   0.5000 0.4000 0.1000  plane waves:    1179
 k-point 58 :  -0.4000 0.4000 0.1000  plane waves:    1171
 k-point 59 :  -0.3000 0.4000 0.1000  plane waves:    1168
 k-point 60 :  -0.2000 0.4000 0.1000  plane waves:    1169
 k-point 61 :  -0.1000 0.4000 0.1000  plane waves:    1167
 k-point 62 :   0.5000 0.5000 0.1000  plane waves:    1169
 k-point 63 :  -0.4000 0.5000 0.1000  plane waves:    1160
 k-point 64 :  -0.3000 0.5000 0.1000  plane waves:    1175
 k-point 65 :  -0.2000 0.5000 0.1000  plane waves:    1174
 k-point 66 :  -0.1000 0.5000 0.1000  plane waves:    1162
 k-point 67 :  -0.4000-0.4000 0.1000  plane waves:    1158
 k-point 68 :  -0.3000-0.4000 0.1000  plane waves:    1164
 k-point 69 :  -0.2000-0.4000 0.1000  plane waves:    1177
 k-point 70 :  -0.3000-0.3000 0.1000  plane waves:    1165
 k-point 71 :  -0.2000-0.3000 0.1000  plane waves:    1163
 k-point 72 :  -0.2000-0.2000 0.1000  plane waves:    1173
 k-point 73 :   0.2000 0.2000 0.2000  plane waves:    1195
 k-point 74 :   0.3000 0.2000 0.2000  plane waves:    1195
 k-point 75 :   0.4000 0.2000 0.2000  plane waves:    1187
 k-point 76 :   0.5000 0.2000 0.2000  plane waves:    1171
 k-point 77 :  -0.4000 0.2000 0.2000  plane waves:    1155
 k-point 78 :  -0.3000 0.2000 0.2000  plane waves:    1157
 k-point 79 :  -0.2000 0.2000 0.2000  plane waves:    1168
 k-point 80 :   0.3000 0.3000 0.2000  plane waves:    1188
 k-point 81 :   0.4000 0.3000 0.2000  plane waves:    1181
 k-point 82 :   0.5000 0.3000 0.2000  plane waves:    1176
 k-point 83 :  -0.4000 0.3000 0.2000  plane waves:    1169
 k-point 84 :  -0.3000 0.3000 0.2000  plane waves:    1161
 k-point 85 :  -0.2000 0.3000 0.2000  plane waves:    1167
 k-point 86 :   0.4000 0.4000 0.2000  plane waves:    1182
 k-point 87 :   0.5000 0.4000 0.2000  plane waves:    1174
 k-point 88 :  -0.4000 0.4000 0.2000  plane waves:    1179
 k-point 89 :  -0.3000 0.4000 0.2000  plane waves:    1169
 k-point 90 :  -0.2000 0.4000 0.2000  plane waves:    1168
 k-point 91 :   0.5000 0.5000 0.2000  plane waves:    1180
 k-point 92 :  -0.4000 0.5000 0.2000  plane waves:    1172
 k-point 93 :  -0.3000 0.5000 0.2000  plane waves:    1171
 k-point 94 :  -0.2000 0.5000 0.2000  plane waves:    1166
 k-point 95 :  -0.4000-0.4000 0.2000  plane waves:    1170
 k-point 96 :  -0.3000-0.4000 0.2000  plane waves:    1163
 k-point 97 :  -0.3000-0.3000 0.2000  plane waves:    1155
 k-point 98 :   0.3000 0.3000 0.3000  plane waves:    1198
 k-point 99 :   0.4000 0.3000 0.3000  plane waves:    1188
 k-point ** :   0.5000 0.3000 0.3000  plane waves:    1182
 k-point ** :  -0.4000 0.3000 0.3000  plane waves:    1178
 k-point ** :  -0.3000 0.3000 0.3000  plane waves:    1161
 k-point ** :   0.4000 0.4000 0.3000  plane waves:    1182
 k-point ** :   0.5000 0.4000 0.3000  plane waves:    1180
 k-point ** :  -0.4000 0.4000 0.3000  plane waves:    1176
 k-point ** :  -0.3000 0.4000 0.3000  plane waves:    1173
 k-point ** :   0.5000 0.5000 0.3000  plane waves:    1180
 k-point ** :  -0.4000 0.5000 0.3000  plane waves:    1178
 k-point ** :  -0.3000 0.5000 0.3000  plane waves:    1172
 k-point ** :  -0.4000-0.4000 0.3000  plane waves:    1184
 k-point ** :   0.4000 0.4000 0.4000  plane waves:    1192
 k-point ** :   0.5000 0.4000 0.4000  plane waves:    1188
 k-point ** :  -0.4000 0.4000 0.4000  plane waves:    1184
 k-point ** :   0.5000 0.5000 0.4000  plane waves:    1180
 k-point ** :  -0.4000 0.5000 0.4000  plane waves:    1178
 k-point ** :   0.5000 0.5000 0.5000  plane waves:    1192

 maximum and minimum number of plane-waves per node :       207      178

 maximum number of plane-waves:      1203
 maximum index in each direction: 
   IXMAX=   11   IYMAX=   11   IZMAX=   11
   IXMIN=  -11   IYMIN=  -11   IZMIN=  -11


 parallel 3D FFT for wavefunctions:
    minimum data exchange during FFTs selected (reduces bandwidth)
 parallel 3D FFT for charge:
    minimum data exchange during FFTs selected (reduces bandwidth)


 total amount of memory used by VASP MPI-rank0    70184. kBytes
=======================================================================

   base      :      30000. kBytes
   nonl-proj :      23298. kBytes
   fftplans  :       3053. kBytes
   grid      :       5535. kBytes
   one-center:         80. kBytes
   wavefun   :       8218. kBytes
 
     INWAV:  cpu time    0.0000: real time    0.0000
 Broyden mixing: mesh for mixing (old mesh)
   NGX = 23   NGY = 23   NGZ = 23
  (NGX  = 96   NGY  = 96   NGZ  = 96)
  gives a total of  12167 points

 initial charge density was supplied:
 charge density of overlapping atoms calculated
 number of electron      34.0000000 magnetization 
 keeping initial charge density in first step


--------------------------------------------------------------------------------------------------------


 Maximum index for augmentation-charges         8757 (set IRDMAX)


--------------------------------------------------------------------------------------------------------


 First call to EWALD:  gamma=   0.518
 Maximum number of real-space cells 4x 4x 4
 Maximum number of reciprocal cells 4x 4x 4

    FEWALD:  cpu time    0.0015: real time    0.0015


--------------------------------------- Iteration      1(   1)  ---------------------------------------


    POTLOK:  cpu time    0.0478: real time    0.0481
    SETDIJ:  cpu time    0.0118: real time    0.0119
     EDDAV:  cpu time    5.0667: real time    5.0998
       DOS:  cpu time    0.0051: real time    0.0051
    --------------------------------------------
      LOOP:  cpu time    5.1314: real time    5.1648

 eigenvalue-minimisations  : 13816
 total energy-change (2. order) : 0.4157176E+03  (-0.1668279E+04)
 number of electron      34.0000000 magnetization 
 augmentation part       34.0000000 magnetization 

 Free energy of the ion-electron system (eV)
  ---------------------------------------------------
  alpha Z        PSCENC =       164.28044973
  Ewald energy   TEWEN  =     -3333.64587894
  -Hartree energ DENC   =     -2435.67721130
  -exchange      EXHF   =         0.00000000
  -V(xc)+E(xc)   XCENC  =       179.84347543
  PAW double counting   =      5069.77841691    -5389.95852422
  entropy T*S    EENTRO =        -0.03061897
  eigenvalues    EBANDS =      -132.37353177
  atomic energy  EATOM  =      6293.50105541
  Solvation  Ediel_sol  =         0.00000000
  ---------------------------------------------------
  free energy    TOTEN  =       415.71763230 eV

  energy without entropy =      415.74825127  energy(sigma->0) =      415.73294178


--------------------------------------------------------------------------------------------------------




--------------------------------------- Iteration      1(   2)  ---------------------------------------


     EDDAV:  cpu time    4.8617: real time    4.8938
       DOS:  cpu time    0.0051: real time    0.0051
    --------------------------------------------
      LOOP:  cpu time    4.8668: real time    4.9063

 eigenvalue-minimisations  : 13152
 total energy-change (2. order) :-0.4131694E+03  (-0.3764521E+03)
 number of electron      34.0000000 magnetization 
 augmentation part       34.0000000 magnetization 

 Free energy of the ion-electron system (eV)
  ---------------------------------------------------
  alpha Z        PSCENC =       164.28044973
  Ewald energy   TEWEN  =     -3333.64587894
  -Hartree energ DENC   =     -2435.67721130
  -exchange      EXHF   =         0.00000000
  -V(xc)+E(xc)   XCENC  =       179.84347543
  PAW double counting   =      5069.77841691    -5389.95852422
  entropy T*S    EENTRO =        -0.00654669
  eigenvalues    EBANDS =      -545.56697003
  atomic energy  EATOM  =      6293.50105541
  Solvation  Ediel_sol  =         0.00000000
  ---------------------------------------------------
  free energy    TOTEN  =         2.54826632 eV

  energy without entropy =        2.55481300  energy(sigma->0) =        2.55153966


--------------------------------------------------------------------------------------------------------




--------------------------------------- Iteration      1(   3)  ---------------------------------------


     EDDAV:  cpu time    5.0365: real time    5.0764
       DOS:  cpu time    0.0050: real time    0.0050
    --------------------------------------------
      LOOP:  cpu time    5.0415: real time    5.0741

 eigenvalue-minimisations  : 13800
 total energy-change (2. order) :-0.3290644E+02  (-0.3252691E+02)
 number of electron      34.0000000 magnetization 
 augmentation part       34.0000000 magnetization 

 Free energy of the ion-electron system (eV)
  ---------------------------------------------------
  alpha Z        PSCENC =       164.28044973
  Ewald energy   TEWEN  =     -3333.64587894
  -Hartree energ DENC   =     -2435.67721130
  -exchange      EXHF   =         0.00000000
  -V(xc)+E(xc)   XCENC  =       179.84347543
  PAW double counting   =      5069.77841691    -5389.95852422
  entropy T*S    EENTRO =        -0.01072410
  eigenvalues    EBANDS =      -578.46923026
  atomic energy  EATOM  =      6293.50105541
  Solvation  Ediel_sol  =         0.00000000
  ---------------------------------------------------
  free energy    TOTEN  =       -30.35817133 eV

  energy without entropy =      -30.34744723  energy(sigma->0) =      -30.35280928


--------------------------------------------------------------------------------------------------------




--------------------------------------- Iteration      1(   4)  ---------------------------------------


     EDDAV:  cpu time    5.0808: real time    5.1138
       DOS:  cpu time    0.0050: real time    0.0050
    --------------------------------------------
      LOOP:  cpu time    5.0858: real time    5.1188

 eigenvalue-minimisations  : 13992
 total energy-change (2. order) :-0.1189906E+01  (-0.1189130E+01)
 number of electron      34.0000000 magnetization 
 augmentation part       34.0000000 magnetization 

 Free energy of the ion-electron system (eV)
  ---------------------------------------------------
  alpha Z        PSCENC =       164.28044973
  Ewald energy   TEWEN  =     -3333.64587894
  -Hartree energ DENC   =     -2435.67721130
  -exchange      EXHF   =         0.00000000
  -V(xc)+E(xc)   XCENC  =       179.84347543
  PAW double counting   =      5069.77841691    -5389.95852422
  entropy T*S    EENTRO =        -0.01143140
  eigenvalues    EBANDS =      -579.65842888
  atomic energy  EATOM  =      6293.50105541
  Solvation  Ediel_sol  =         0.00000000
  ---------------------------------------------------
  free energy    TOTEN  =       -31.54807725 eV

  energy without entropy =      -31.53664585  energy(sigma->0) =      -31.54236155


--------------------------------------------------------------------------------------------------------




--------------------------------------- Iteration      1(   5)  ---------------------------------------


     EDDAV:  cpu time    4.8405: real time    4.8719
       DOS:  cpu time    0.0051: real time    0.0051
    CHARGE:  cpu time    0.2412: real time    0.2421
    MIXING:  cpu time    0.0021: real time    0.0021
    --------------------------------------------
      LOOP:  cpu time    5.0888: real time    5.1231

 eigenvalue-minimisations  : 13100
 total energy-change (2. order) :-0.4648591E-01  (-0.4647859E-01)
 number of electron      33.9999998 magnetization 
 augmentation part       11.1737662 magnetization 

 Broyden mixing:
  rms(total) = 0.14177E+01    rms(broyden)= 0.14171E+01
  rms(prec ) = 0.26216E+01
  weight for this iteration     100.00

 Free energy of the ion-electron system (eV)
  ---------------------------------------------------
  alpha Z        PSCENC =       164.28044973
  Ewald energy   TEWEN  =     -3333.64587894
  -Hartree energ DENC   =     -2435.67721130
  -exchange      EXHF   =         0.00000000
  -V(xc)+E(xc)   XCENC  =       179.84347543
  PAW double counting   =      5069.77841691    -5389.95852422
  entropy T*S    EENTRO =        -0.01143202
  eigenvalues    EBANDS =      -579.70491418
  atomic energy  EATOM  =      6293.50105541
  Solvation  Ediel_sol  =         0.00000000
  ---------------------------------------------------
  free energy    TOTEN  =       -31.59456317 eV

  energy without entropy =      -31.58313115  energy(sigma->0) =      -31.58884716


--------------------------------------------------------------------------------------------------------




--------------------------------------- Iteration      1(   6)  ---------------------------------------


    POTLOK:  cpu time    0.0453: real time    0.0474
    SETDIJ:  cpu time    0.0113: real time    0.0114
    EDDIAG:  cpu time    0.9069: real time    0.9120
  RMM-DIIS:  cpu time    4.2668: real time    4.2952
    ORTHCH:  cpu time    0.0568: real time    0.0570
       DOS:  cpu time    0.0020: real time    0.0020
    CHARGE:  cpu time    0.2390: real time    0.2399
    MIXING:  cpu time    0.0021: real time    0.0022
    --------------------------------------------
      LOOP:  cpu time    5.5303: real time    5.5653

 eigenvalue-minimisations  :  9088
 total energy-change (2. order) : 0.2000146E+01  (-0.1410238E+01)
 number of electron      33.9999999 magnetization 
 augmentation part       12.3565302 magnetization 

 Broyden mixing:
  rms(total) = 0.11284E+01    rms(broyden)= 0.11281E+01
  rms(prec ) = 0.17601E+01
  weight for this iteration     100.00

 eigenvalues of (default mixing * dielectric matrix)
  average eigenvalue GAMMA=   0.5633
  0.5633

 Free energy of the ion-electron system (eV)
  ---------------------------------------------------
  alpha Z        PSCENC =       164.28044973
  Ewald energy   TEWEN  =     -3333.64587894
  -Hartree energ DENC   =     -2366.64079461
  -exchange      EXHF   =         0.00000000
  -V(xc)+E(xc)   XCENC  =       179.13644317
  PAW double counting   =      5083.12173763    -5387.52593124
  entropy T*S    EENTRO =        -0.00000000
  eigenvalues    EBANDS =      -661.82149814
  atomic energy  EATOM  =      6293.50105541
  Solvation  Ediel_sol  =         0.00000000
  ---------------------------------------------------
  free energy    TOTEN  =       -29.59441699 eV

  energy without entropy =      -29.59441699  energy(sigma->0) =      -29.59441699


--------------------------------------------------------------------------------------------------------




--------------------------------------- Iteration      1(   7)  ---------------------------------------


    POTLOK:  cpu time    0.0454: real time    0.0457
    SETDIJ:  cpu time    0.0112: real time    0.0113
    EDDIAG:  cpu time    0.9062: real time    0.9114
  RMM-DIIS:  cpu time    4.5558: real time    4.5858
    ORTHCH:  cpu time    0.0532: real time    0.0534
       DOS:  cpu time    0.0036: real time    0.0036
    CHARGE:  cpu time    0.2401: real time    0.2410
    MIXING:  cpu time    0.0020: real time    0.0020
    --------------------------------------------
      LOOP:  cpu time    5.8175: real time    5.8542

 eigenvalue-minimisations  :  9653
 total energy-change (2. order) : 0.2224855E+01  (-0.4750309E+00)
 number of electron      33.9999999 magnetization 
 augmentation part       11.4546403 magnetization 

 Broyden mixing:
  rms(total) = 0.32355E+00    rms(broyden)= 0.32344E+00
  rms(prec ) = 0.48460E+00
  weight for this iteration     100.00

 eigenvalues of (default mixing * dielectric matrix)
  average eigenvalue GAMMA=   0.7344
  0.9236  0.5452

 Free energy of the ion-electron system (eV)
  ---------------------------------------------------
  alpha Z        PSCENC =       164.28044973
  Ewald energy   TEWEN  =     -3333.64587894
  -Hartree energ DENC   =     -2415.41716988
  -exchange      EXHF   =         0.00000000
  -V(xc)+E(xc)   XCENC  =       180.76993811
  PAW double counting   =      5216.86488176    -5540.97504975
  entropy T*S    EENTRO =        -0.00000022
  eigenvalues    EBANDS =      -592.74778789
  atomic energy  EATOM  =      6293.50105541
  Solvation  Ediel_sol  =         0.00000000
  ---------------------------------------------------
  free energy    TOTEN  =       -27.36956165 eV

  energy without entropy =      -27.36956143  energy(sigma->0) =      -27.36956154


--------------------------------------------------------------------------------------------------------




--------------------------------------- Iteration      1(   8)  ---------------------------------------


    POTLOK:  cpu time    0.0447: real time    0.0450
    SETDIJ:  cpu time    0.0110: real time    0.0110
    EDDIAG:  cpu time    0.9055: real time    0.9108
  RMM-DIIS:  cpu time    4.5366: real time    4.5671
    ORTHCH:  cpu time    0.0562: real time    0.0564
       DOS:  cpu time    0.0020: real time    0.0020
    CHARGE:  cpu time    0.2394: real time    0.2403
    MIXING:  cpu time    0.0021: real time    0.0021
    --------------------------------------------
      LOOP:  cpu time    5.7976: real time    5.8348

 eigenvalue-minimisations  :  9641
 total energy-change (2. order) :-0.2598167E-01  (-0.6347013E-01)
 number of electron      33.9999999 magnetization 
 augmentation part       11.6082224 magnetization 

 Broyden mixing:
  rms(total) = 0.18926E+00    rms(broyden)= 0.18924E+00
  rms(prec ) = 0.25288E+00
  weight for this iteration     100.00

 eigenvalues of (default mixing * dielectric matrix)
  average eigenvalue GAMMA=   1.2771
  0.5091  1.1306  2.1917

 Free energy of the ion-electron system (eV)
  ---------------------------------------------------
  alpha Z        PSCENC =       164.28044973
  Ewald energy   TEWEN  =     -3333.64587894
  -Hartree energ DENC   =     -2405.82415173
  -exchange      EXHF   =         0.00000000
  -V(xc)+E(xc)   XCENC  =       180.54404625
  PAW double counting   =      5268.51364805    -5592.23036917
  entropy T*S    EENTRO =        -0.00000000
  eigenvalues    EBANDS =      -602.53434293
  atomic energy  EATOM  =      6293.50105541
  Solvation  Ediel_sol  =         0.00000000
  ---------------------------------------------------
  free energy    TOTEN  =       -27.39554333 eV

  energy without entropy =      -27.39554333  energy(sigma->0) =      -27.39554333


--------------------------------------------------------------------------------------------------------




--------------------------------------- Iteration      1(   9)  ---------------------------------------


    POTLOK:  cpu time    0.0456: real time    0.0459
    SETDIJ:  cpu time    0.0113: real time    0.0114
    EDDIAG:  cpu time    0.9083: real time    0.9136
  RMM-DIIS:  cpu time    4.7390: real time    4.7712
    ORTHCH:  cpu time    0.0534: real time    0.0536
       DOS:  cpu time    0.0019: real time    0.0019
    CHARGE:  cpu time    0.2388: real time    0.2398
    MIXING:  cpu time    0.0021: real time    0.0022
    --------------------------------------------
      LOOP:  cpu time    6.0005: real time    6.0395

 eigenvalue-minimisations  : 10189
 total energy-change (2. order) :-0.8363354E-02  (-0.2512494E-01)
 number of electron      33.9999999 magnetization 
 augmentation part       11.5635374 magnetization 

 Broyden mixing:
  rms(total) = 0.48920E-01    rms(broyden)= 0.48895E-01
  rms(prec ) = 0.78517E-01
  weight for this iteration     100.00

 eigenvalues of (default mixing * dielectric matrix)
  average eigenvalue GAMMA=   1.2882
  2.5486  0.5014  1.0513  1.0513

 Free energy of the ion-electron system (eV)
  ---------------------------------------------------
  alpha Z        PSCENC =       164.28044973
  Ewald energy   TEWEN  =     -3333.64587894
  -Hartree energ DENC   =     -2409.58522285
  -exchange      EXHF   =         0.00000000
  -V(xc)+E(xc)   XCENC  =       180.70282727
  PAW double counting   =      5369.77147418    -5694.38407513
  entropy T*S    EENTRO =        -0.00000000
  eigenvalues    EBANDS =      -598.04453636
  atomic energy  EATOM  =      6293.50105541
  Solvation  Ediel_sol  =         0.00000000
  ---------------------------------------------------
  free energy    TOTEN  =       -27.40390668 eV

  energy without entropy =      -27.40390668  energy(sigma->0) =      -27.40390668


--------------------------------------------------------------------------------------------------------




--------------------------------------- Iteration      1(  10)  ---------------------------------------


    POTLOK:  cpu time    0.0445: real time    0.0448
    SETDIJ:  cpu time    0.0110: real time    0.0111
    EDDIAG:  cpu time    0.9050: real time    0.9102
  RMM-DIIS:  cpu time    5.0057: real time    5.0396
    ORTHCH:  cpu time    0.0531: real time    0.0533
       DOS:  cpu time    0.0019: real time    0.0020
    CHARGE:  cpu time    0.2391: real time    0.2400
    MIXING:  cpu time    0.0021: real time    0.0021
    --------------------------------------------
      LOOP:  cpu time    6.2624: real time    6.3031

 eigenvalue-minimisations  : 10731
 total energy-change (2. order) :-0.4240004E-02  (-0.7448485E-02)
 number of electron      33.9999999 magnetization 
 augmentation part       11.5875579 magnetization 

 Broyden mixing:
  rms(total) = 0.17448E-01    rms(broyden)= 0.17441E-01
  rms(prec ) = 0.32591E-01
  weight for this iteration     100.00

 eigenvalues of (default mixing * dielectric matrix)
  average eigenvalue GAMMA=   1.4848
  2.4498  2.4498  0.5009  1.0118  1.0118

 Free energy of the ion-electron system (eV)
  ---------------------------------------------------
  alpha Z        PSCENC =       164.28044973
  Ewald energy   TEWEN  =     -3333.64587894
  -Hartree energ DENC   =     -2408.99759649
  -exchange      EXHF   =         0.00000000
  -V(xc)+E(xc)   XCENC  =       180.73209553
  PAW double counting   =      5384.55645703    -5708.63587050
  entropy T*S    EENTRO =        -0.00000000
  eigenvalues    EBANDS =      -599.19885846
  atomic energy  EATOM  =      6293.50105541
  Solvation  Ediel_sol  =         0.00000000
  ---------------------------------------------------
  free energy    TOTEN  =       -27.40814669 eV

  energy without entropy =      -27.40814669  energy(sigma->0) =      -27.40814669


--------------------------------------------------------------------------------------------------------




--------------------------------------- Iteration      1(  11)  ---------------------------------------


    POTLOK:  cpu time    0.0446: real time    0.0448
    SETDIJ:  cpu time    0.0111: real time    0.0112
    EDDIAG:  cpu time    0.9063: real time    0.9116
  RMM-DIIS:  cpu time    5.0740: real time    5.1093
    ORTHCH:  cpu time    0.0532: real time    0.0534
       DOS:  cpu time    0.0020: real time    0.0020
    CHARGE:  cpu time    0.2402: real time    0.2411
    MIXING:  cpu time    0.0023: real time    0.0023
    --------------------------------------------
      LOOP:  cpu time    6.3336: real time    6.3757

 eigenvalue-minimisations  : 10651
 total energy-change (2. order) :-0.1038371E-02  (-0.1798018E-02)
 number of electron      33.9999999 magnetization 
 augmentation part       11.5852020 magnetization 

 Broyden mixing:
  rms(total) = 0.56709E-02    rms(broyden)= 0.56666E-02
  rms(prec ) = 0.91635E-02
  weight for this iteration     100.00

 eigenvalues of (default mixing * dielectric matrix)
  average eigenvalue GAMMA=   1.4497
  2.6344  2.3689  0.5010  0.9990  0.9990  1.1962

 Free energy of the ion-electron system (eV)
  ---------------------------------------------------
  alpha Z        PSCENC =       164.28044973
  Ewald energy   TEWEN  =     -3333.64587894
  -Hartree energ DENC   =     -2410.28403106
  -exchange      EXHF   =         0.00000000
  -V(xc)+E(xc)   XCENC  =       180.75176224
  PAW double counting   =      5386.25199385    -5709.93724944
  entropy T*S    EENTRO =        -0.00000000
  eigenvalues    EBANDS =      -598.32728684
  atomic energy  EATOM  =      6293.50105541
  Solvation  Ediel_sol  =         0.00000000
  ---------------------------------------------------
  free energy    TOTEN  =       -27.40918506 eV

  energy without entropy =      -27.40918506  energy(sigma->0) =      -27.40918506


--------------------------------------------------------------------------------------------------------




--------------------------------------- Iteration      1(  12)  ---------------------------------------


    POTLOK:  cpu time    0.0452: real time    0.0455
    SETDIJ:  cpu time    0.0111: real time    0.0112
    EDDIAG:  cpu time    0.9070: real time    0.9123
  RMM-DIIS:  cpu time    4.8932: real time    4.9263
    ORTHCH:  cpu time    0.0532: real time    0.0534
       DOS:  cpu time    0.0021: real time    0.0021
    CHARGE:  cpu time    0.2392: real time    0.2401
    MIXING:  cpu time    0.0021: real time    0.0021
    --------------------------------------------
      LOOP:  cpu time    6.1532: real time    6.1930

 eigenvalue-minimisations  : 10622
 total energy-change (2. order) :-0.4916855E-03  (-0.5369249E-03)
 number of electron      33.9999999 magnetization 
 augmentation part       11.5817962 magnetization 

 Broyden mixing:
  rms(total) = 0.34325E-02    rms(broyden)= 0.34312E-02
  rms(prec ) = 0.43987E-02
  weight for this iteration     100.00

 eigenvalues of (default mixing * dielectric matrix)
  average eigenvalue GAMMA=   1.7024
  4.0818  2.5858  1.8352  0.5010  1.0114  1.0114  0.8898

 Free energy of the ion-electron system (eV)
  ---------------------------------------------------
  alpha Z        PSCENC =       164.28044973
  Ewald energy   TEWEN  =     -3333.64587894
  -Hartree energ DENC   =     -2410.37936423
  -exchange      EXHF   =         0.00000000
  -V(xc)+E(xc)   XCENC  =       180.76135967
  PAW double counting   =      5387.63751632    -5711.42877486
  entropy T*S    EENTRO =        -0.00000000
  eigenvalues    EBANDS =      -598.13603984
  atomic energy  EATOM  =      6293.50105541
  Solvation  Ediel_sol  =         0.00000000
  ---------------------------------------------------
  free energy    TOTEN  =       -27.40967674 eV

  energy without entropy =      -27.40967674  energy(sigma->0) =      -27.40967674


--------------------------------------------------------------------------------------------------------




--------------------------------------- Iteration      1(  13)  ---------------------------------------


    POTLOK:  cpu time    0.0441: real time    0.0443
    SETDIJ:  cpu time    0.0110: real time    0.0111
    EDDIAG:  cpu time    0.9078: real time    0.9129
  RMM-DIIS:  cpu time    5.0661: real time    5.1014
    ORTHCH:  cpu time    0.0531: real time    0.0533
       DOS:  cpu time    0.0020: real time    0.0021
    CHARGE:  cpu time    0.2403: real time    0.2413
    MIXING:  cpu time    0.0023: real time    0.0023
[...]
  band No.  band energies     occupation 
      1    -105.4666      2.00000
      2     -63.1608      2.00000
      3     -62.9580      2.00000
      4     -62.9527      2.00000
      5     -14.6945      2.00000
      6     -13.0944      2.00000
      7      -1.0578      2.00000
      8      -0.4494      2.00000
      9       1.2116      2.00000
     10       1.5763      2.00000
     11       1.8162      2.00000
     12       2.6212      2.00000
     13       2.8358      2.00000
     14       3.9532      2.00000
     15       4.2930      2.00000
     16       4.7473      2.00000
     17       4.9599      2.00000
     18       9.0793      0.00000
     19      12.2233      0.00000
     20      14.5975      0.00000
     21      17.0121      0.00000
     22      18.1355      0.00000
     23      18.5669      0.00000
     24      20.0028      0.00000
     25      20.5472      0.00000
     26      21.3225      0.00000
     27      23.2597      0.00000
     28      23.6946      0.00000
     29      25.7495      0.00000
     30      26.4171      0.00000
     31      28.7621      0.00000
     32      30.5487      0.00000
     33      30.7483      0.00000
     34      32.1585      0.00000
     35      32.7426      0.00000
     36      33.4301      0.00000

 k-point   114 :       0.5000    0.5000    0.4000
  band No.  band energies     occupation 
      1    -105.4671      2.00000
      2     -63.1611      2.00000
      3     -62.9527      2.00000
      4     -62.9511      2.00000
      5     -15.0411      2.00000
      6     -13.2320      2.00000
      7      -1.2470      2.00000
      8       0.0037      2.00000
      9       1.8562      2.00000
     10       2.1544      2.00000
     11       2.1792      2.00000
     12       2.5320      2.00000
     13       2.6359      2.00000
     14       3.9892      2.00000
     15       4.1022      2.00000
     16       4.9276      2.00000
     17       5.0343      2.00000
     18       9.3384      0.00000
     19      10.9699      0.00000
     20      13.5265      0.00000
     21      17.9052      0.00000
     22      18.8626      0.00000
     23      19.9602      0.00000
     24      19.9719      0.00000
     25      21.1846      0.00000
     26      22.3714      0.00000
     27      23.1006      0.00000
     28      24.1398      0.00000
     29      25.5403      0.00000
     30      27.2690      0.00000
     31      28.1947      0.00000
     32      28.8536      0.00000
     33      30.0846      0.00000
     34      30.2470      0.00000
     35      31.2917      0.00000
     36      32.2511      0.00000

 k-point   115 :      -0.4000    0.5000    0.4000
  band No.  band energies     occupation 
      1    -105.4667      2.00000
      2     -63.1608      2.00000
      3     -62.9562      2.00000
      4     -62.9522      2.00000
      5     -14.8050      2.00000
      6     -13.1378      2.00000
      7      -1.0767      2.00000
      8      -0.2770      2.00000
      9       1.3646      2.00000
     10       1.6028      2.00000
     11       2.1919      2.00000
     12       2.4044      2.00000
     13       2.7841      2.00000
     14       3.9141      2.00000
     15       4.2575      2.00000
     16       4.7998      2.00000
     17       4.9822      2.00000
     18       9.1951      0.00000
     19      11.8543      0.00000
     20      14.3434      0.00000
     21      17.2595      0.00000
     22      18.3311      0.00000
     23      18.9273      0.00000
     24      20.4702      0.00000
     25      20.5794      0.00000
     26      21.6764      0.00000
     27      22.3801      0.00000
     28      23.3874      0.00000
     29      26.5370      0.00000
     30      26.7021      0.00000
     31      28.6207      0.00000
     32      29.8872      0.00000
     33      30.7085      0.00000
     34      31.7473      0.00000
     35      32.3287      0.00000
     36      32.7276      0.00000

 k-point   116 :       0.5000    0.5000    0.5000
  band No.  band energies     occupation 
      1    -105.4673      2.00000
      2     -63.1611      2.00000
      3     -62.9510      2.00000
      4     -62.9510      2.00000
      5     -15.1626      2.00000
      6     -13.2888      2.00000
      7      -1.3038      2.00000
      8       0.0613      2.00000
      9       2.0810      2.00000
     10       2.3116      2.00000
     11       2.3116      2.00000
     12       2.6692      2.00000
     13       2.6692      2.00000
     14       4.0296      2.00000
     15       4.0296      2.00000
     16       5.0448      2.00000
     17       5.0448      2.00000
     18       9.4432      0.00000
     19      10.3882      0.00000
     20      13.0539      0.00000
     21      18.1099      0.00000
     22      19.7109      0.00000
     23      19.7109      0.00000
     24      20.9154      0.00000
     25      20.9154      0.00000
     26      21.5897      0.00000
     27      25.2867      0.00000
     28      25.2550      0.00000
     29      25.9319      0.00000
     30      26.2771      0.00000
     31      28.2712      0.00000
     32      28.2654      0.00000
     33      29.0454      0.00000
     34      28.9813      0.00000
     35      30.1870      0.00000
     36      31.5856      0.00000


--------------------------------------------------------------------------------------------------------


 soft charge-density along one line, spin component           1
         0         1         2         3         4         5         6         7         8         9
 total charge-density along one line
 
 pseudopotential strength for first ion, spin component:           1
-79.476  14.513 -15.551   0.000  -0.000   0.000   0.000  -0.000
 14.513   3.471  -6.472  -0.000   0.000  -0.000  -0.000   0.000
-15.551  -6.472  13.140   0.000  -0.000   0.000   0.000  -0.000
  0.000  -0.000   0.000 -68.503   0.000   0.000 -59.778   0.000
 -0.000   0.000  -0.000   0.000 -68.557   0.000   0.000 -59.824
  0.000  -0.000   0.000   0.000   0.000 -68.503   0.000   0.000
  0.000  -0.000   0.000 -59.778   0.000   0.000 -52.230   0.000
 -0.000   0.000  -0.000   0.000 -59.824   0.000   0.000 -52.269
  0.000  -0.000   0.000   0.000   0.000 -59.778   0.000   0.000
  0.000   0.000  -0.000  10.799   0.000   0.000   7.082   0.000
 -0.000  -0.000   0.000   0.000  10.705   0.000   0.000   6.998
  0.000   0.000  -0.000   0.000   0.000  10.799   0.000   0.000
  0.000  -0.000  -0.000   0.000   0.000   0.000   0.000   0.000
  0.000  -0.000   0.000  -0.000   0.000   0.000  -0.000   0.000
 -0.029   0.015   0.006  -0.000  -0.000  -0.000  -0.000  -0.000
  0.000  -0.000  -0.000   0.000   0.000  -0.000   0.000   0.000
  0.000  -0.000   0.000  -0.000   0.000   0.000  -0.000   0.000
 -0.000  -0.000   0.000  -0.000  -0.000  -0.000  -0.000  -0.000
 -0.000   0.000  -0.000   0.000  -0.000  -0.000   0.000  -0.000
  0.063   0.006  -0.035   0.000   0.000   0.000   0.000   0.000
 -0.000   0.000   0.000  -0.000  -0.000   0.000  -0.000  -0.000
 -0.000   0.000  -0.000   0.000  -0.000  -0.000   0.000  -0.000
  0.000   0.000  -0.000   0.000   0.000   0.000   0.000   0.000
  0.000  -0.000   0.000  -0.000   0.000   0.000  -0.000   0.000
 -0.115  -0.031   0.078  -0.000  -0.000  -0.000  -0.000  -0.000
  0.000   0.000  -0.000   0.000   0.000  -0.000   0.000   0.000
  0.000  -0.000   0.000  -0.000   0.000   0.000  -0.000   0.000
 -0.000   0.000   0.000   0.000   0.000   0.000   0.000   0.000
  0.000  -0.000  -0.000   0.000   0.000   0.000   0.000   0.000
 -0.000   0.000   0.000   0.008   0.000  -0.000   0.008   0.000
 -0.000   0.000   0.000  -0.000  -0.006  -0.000  -0.000  -0.004
 -0.000   0.000   0.000  -0.000   0.000   0.008  -0.000   0.000
  0.000  -0.000  -0.000   0.000   0.000   0.000   0.000   0.000
 -0.000   0.000   0.000  -0.000  -0.000   0.000  -0.000  -0.000
  0.000  -0.000   0.000  -0.000  -0.000  -0.000  -0.000  -0.000
 -0.000   0.000  -0.000  -0.000  -0.000  -0.000  -0.000  -0.000
  0.000  -0.000   0.000  -0.029  -0.000   0.000  -0.027  -0.000
  0.000  -0.000   0.000   0.000   0.041   0.000   0.000   0.034
  0.000  -0.000   0.000   0.000  -0.000  -0.029   0.000  -0.000
 -0.000   0.000  -0.000  -0.000  -0.000  -0.000  -0.000  -0.000
  0.000  -0.000   0.000   0.000   0.000  -0.000   0.000   0.000
 total augmentation occupancy for first ion, spin component:           1
  2.002   0.011   0.006   0.000   0.000   0.000   0.000   0.000   0.000   0.000   0.000   0.000   0.000  -0.000  -0.001   0.000
  0.011   1.160   0.005   0.000   0.000   0.000   0.000   0.000   0.000   0.000   0.000   0.000   0.000  -0.000  -0.412   0.000
  0.006   0.005   0.000   0.000   0.000   0.000   0.000   0.000   0.000   0.000   0.000   0.000  -0.000   0.000   0.001  -0.000
  0.000   0.000   0.000   2.568   0.000   0.000  -0.663  -0.000  -0.000   0.029   0.000   0.000   0.000   0.000   0.000   0.000
  0.000   0.000   0.000   0.000   4.443   0.000  -0.000  -2.695  -0.000   0.000   0.080   0.000   0.000   0.000   0.000   0.000
  0.000   0.000   0.000   0.000   0.000   2.568  -0.000  -0.000  -0.663   0.000   0.000   0.029   0.000   0.000   0.000   0.000
  0.000   0.000   0.000  -0.663  -0.000  -0.000   0.778   0.000   0.000  -0.022  -0.000  -0.000   0.000   0.000   0.000   0.000
  0.000   0.000   0.000  -0.000  -2.695  -0.000   0.000   2.979   0.000  -0.000  -0.078  -0.000   0.000   0.000   0.000   0.000
  0.000   0.000   0.000  -0.000  -0.000  -0.663   0.000   0.000   0.778  -0.000  -0.000  -0.022   0.000   0.000   0.000   0.000
  0.000   0.000   0.000   0.029   0.000   0.000  -0.022  -0.000  -0.000   0.001   0.000   0.000   0.000   0.000   0.000   0.000
  0.000   0.000   0.000   0.000   0.080   0.000  -0.000  -0.078  -0.000   0.000   0.002   0.000   0.000   0.000   0.000   0.000
  0.000   0.000   0.000   0.000   0.000   0.029  -0.000  -0.000  -0.022   0.000   0.000   0.001   0.000   0.000   0.000   0.000
  0.000   0.000  -0.000   0.000   0.000   0.000   0.000   0.000   0.000   0.000   0.000   0.000   1.980   0.000  -0.000   0.001
 -0.000  -0.000   0.000   0.000   0.000   0.000   0.000   0.000   0.000   0.000   0.000   0.000   0.000   2.025   0.000   0.000
 -0.001  -0.412   0.001   0.000   0.000   0.000   0.000   0.000   0.000   0.000   0.000   0.000  -0.000   0.000   1.720   0.000
  0.000   0.000  -0.000   0.000   0.000   0.000   0.000   0.000   0.000   0.000   0.000   0.000   0.001   0.000   0.000   2.025
  0.000   0.000  -0.000   0.000   0.000   0.000   0.000   0.000   0.000   0.000   0.000   0.000   0.000   0.001  -0.000   0.000
  0.000  -0.000  -0.000   0.000   0.000   0.000   0.000   0.000   0.000   0.000   0.000   0.000  -0.008  -0.000  -0.000  -0.000
 -0.000   0.000   0.000   0.000   0.000   0.000   0.000   0.000   0.000   0.000   0.000   0.000  -0.000  -0.022   0.000  -0.000
 -0.000   0.121   0.001   0.000   0.000   0.000   0.000   0.000   0.000   0.000   0.000   0.000   0.000   0.000   0.043  -0.000
  0.000  -0.000  -0.000   0.000   0.000   0.000   0.000   0.000   0.000   0.000   0.000   0.000  -0.000  -0.000  -0.000  -0.022
  0.000  -0.000  -0.000   0.000   0.000   0.000   0.000   0.000   0.000   0.000   0.000   0.000   0.000  -0.000  -0.000  -0.000
  0.000  -0.000  -0.000   0.000   0.000   0.000   0.000   0.000   0.000   0.000   0.000   0.000   0.009   0.000  -0.000  -0.000
 -0.000   0.000   0.000   0.000   0.000   0.000   0.000   0.000   0.000   0.000   0.000   0.000   0.000   0.007   0.000   0.000
 -0.000   0.014   0.000   0.000   0.000   0.000   0.000   0.000   0.000   0.000   0.000   0.000  -0.000   0.000   0.015   0.000
  0.000  -0.000  -0.000   0.000   0.000   0.000   0.000   0.000   0.000   0.000   0.000   0.000  -0.000   0.000   0.000   0.007
  0.000  -0.000  -0.000   0.000   0.000   0.000   0.000   0.000   0.000   0.000   0.000   0.000   0.000  -0.000  -0.000   0.000
  0.000   0.000   0.000   0.000   0.000   0.000  -0.000  -0.000  -0.000   0.000   0.000   0.000   0.000   0.000   0.000   0.000
  0.000   0.000   0.000   0.000   0.000   0.001  -0.000  -0.000  -0.001   0.000   0.000   0.000   0.000   0.000   0.000   0.000
  0.000   0.000   0.000  -0.015  -0.000  -0.000   0.015   0.000   0.000  -0.000  -0.000  -0.000   0.000   0.000   0.000   0.000
  0.000   0.000   0.000  -0.000  -0.159  -0.000   0.000   0.169   0.000  -0.000  -0.004  -0.000   0.000   0.000   0.000   0.000
  0.000   0.000   0.000  -0.000   0.000  -0.015  -0.000  -0.000   0.015  -0.000   0.000  -0.000   0.000   0.000   0.000   0.000
  0.000   0.000   0.000   0.001   0.000   0.000  -0.001  -0.000  -0.000   0.000   0.000   0.000   0.000   0.000   0.000   0.000
  0.000   0.000   0.000  -0.000   0.000   0.000   0.000  -0.000  -0.000  -0.000   0.000   0.000   0.000   0.000   0.000   0.000
  0.000   0.000   0.000   0.000   0.000   0.000  -0.000  -0.000  -0.000   0.000   0.000   0.000   0.000   0.000   0.000   0.000
  0.000   0.000   0.000   0.000   0.000   0.000  -0.000  -0.000  -0.000   0.000   0.000   0.000   0.000   0.000   0.000   0.000
  0.000   0.000   0.000  -0.001  -0.000  -0.000   0.001   0.000   0.000  -0.000  -0.000  -0.000   0.000   0.000   0.000   0.000
  0.000   0.000   0.000  -0.000  -0.011  -0.000   0.000   0.008   0.000  -0.000  -0.000  -0.000   0.000   0.000   0.000   0.000
  0.000   0.000   0.000  -0.000   0.000  -0.001   0.000  -0.000   0.001  -0.000   0.000  -0.000   0.000   0.000   0.000   0.000
  0.000   0.000   0.000   0.000   0.000   0.000  -0.000  -0.000  -0.000   0.000   0.000   0.000   0.000   0.000   0.000   0.000
  0.000   0.000   0.000  -0.000   0.000   0.000   0.000  -0.000  -0.000  -0.000   0.000   0.000   0.000   0.000   0.000   0.000


------------------------ aborting loop because EDIFF is reached ----------------------------------------


    CHARGE:  cpu time    0.2412: real time    0.2420
    FORLOC:  cpu time    0.0029: real time    0.0029
    FORNL :  cpu time    0.2162: real time    0.2170
    STRESS:  cpu time    0.6948: real time    0.6987
    FORCOR:  cpu time    0.0458: real time    0.0460
    FORHAR:  cpu time    0.0123: real time    0.0124
    MIXING:  cpu time    0.0017: real time    0.0017
    OFIELD:  cpu time    0.0000: real time    0.0000

  FORCE on cell =-STRESS in cart. coord.  units (eV):
  Direction    XX          YY          ZZ          XY          YZ          ZX
  --------------------------------------------------------------------------------------
  Alpha Z   167.28214   167.28214   167.28214
  Ewald   -1091.24516 -1091.24515 -1168.58029    -0.00000     0.00000    -0.00000
  Hartree   902.07575   902.07575   596.71652    -0.00000     0.00000     0.00000
  E(xc)    -218.98042  -218.98042  -218.44002    -0.00000     0.00000     0.00000
  Local    -384.61355  -384.61355    18.31230     0.00000    -0.00000     0.00000
  n-local  -198.00868  -197.59345  -200.39526     0.30417     0.62608    -0.66444
  augment   206.90862   206.90862   200.75283    -0.00000     0.00000    -0.00000
  Kinetic   617.39712   615.33615   604.34325    -4.41646    -0.88132    -0.13777
  Fock        0.00000     0.00000     0.00000     0.00000     0.00000     0.00000
  -------------------------------------------------------------------------------------
  Total      -0.00705    -0.00705    -0.00854     0.00000    -0.00000    -0.00000
  in kB      -0.28716    -0.28716    -0.34783     0.00000    -0.00000    -0.00000
  external pressure =       -0.31 kB  Pullay stress =        0.00 kB


 VOLUME and BASIS-vectors are now :
 -----------------------------------------------------------------------------
  energy-cutoff  :      550.00
  volume of cell :       39.32
      direct lattice vectors                 reciprocal lattice vectors
     1.420054545  0.819868875  5.628279077     0.352099151  0.203284540  0.059224734
    -1.420054545  0.819868875  5.628279077    -0.352099151  0.203284540  0.059224734
    -0.000000000 -1.639737740  5.628279077    -0.000000000 -0.406569080  0.059224735

  length of vectors
     5.862274751  5.862274751  5.862274749     0.410860056  0.410860056  0.410860057


 FORCES acting on ions
    electron-ion (+dipol)            ewald-force                    non-local-force                 convergence-correction
 -----------------------------------------------------------------------------------------------
   0.435E-13 0.102E-12 -.801E-13   0.311E-14 -.183E-13 -.455E-12   0.232E-21 -.241E-21 -.167E-21   -.744E-11 -.991E-12 -.735E-11
   -.447E-12 -.537E-12 -.566E-12   0.157E-14 -.576E-14 0.995E-13   -.104E-22 0.874E-23 0.205E-22   0.748E-14 -.113E-13 0.111E-11
   0.346E-10 -.139E-06 -.348E+03   -.258E-14 0.430E-07 0.344E+03   0.451E-16 0.260E-08 0.444E+01   0.107E-11 -.653E-12 0.345E-03
   -.207E-10 0.139E-06 0.348E+03   0.279E-14 -.430E-07 -.344E+03   -.460E-16 -.260E-08 -.444E+01   -.649E-12 0.216E-11 -.345E-03
 -----------------------------------------------------------------------------------------------
   0.135E-10 -.373E-11 0.148E-11   0.489E-14 -.210E-13 0.000E+00   -.874E-18 0.343E-17 0.888E-15   -.700E-11 0.503E-12 -.478E-11
 
 
 POSITION                                       TOTAL-FORCE (eV/Angst)
 -----------------------------------------------------------------------------------
     -0.00000      0.00000     -0.00000         0.000000     -0.000000     -0.000000
      0.00000      0.00000      8.44242         0.000000     -0.000000     -0.000000
      0.00000      0.00000      1.84997         0.000000      0.000000      0.000517
      0.00000      0.00000     15.03487        -0.000000     -0.000000     -0.000517
 -----------------------------------------------------------------------------------
    total drift:                                0.000000     -0.000000     -0.000000


--------------------------------------------------------------------------------------------------------



  FREE ENERGIE OF THE ION-ELECTRON SYSTEM (eV)
  ---------------------------------------------------
  free  energy   TOTEN  =       -27.41718640 eV

  energy  without entropy=      -27.41718640  energy(sigma->0) =      -27.41718640
 
 d Force = 0.2893986E-07[-0.172E-07, 0.751E-07]  d Energy =-0.2185971E-07 0.508E-07
 d Force =-0.1143319E-01[-0.114E-01,-0.114E-01]  d Ewald  =-0.8754575E-02-0.268E-02


--------------------------------------------------------------------------------------------------------


    POTLOK:  cpu time    0.0547: real time    0.0550


--------------------------------------------------------------------------------------------------------


 Quasi-Newton relaxation of ions (Broydens 2nd method)
  g(Force)  = 0.258E-07   g(Stress)= 0.208E-05

 retain information from N=  1 steps
 eigenvalues of (default step * inverse Hessian matrix)
  average eigenvalue of G=   0.0004
 eigenvalue spectrum of G is  0.0004


--------------------------------------------------------------------------------------------------------


  
 reached required accuracy - stopping structural energy minimisation
 writing wavefunctions
     LOOP+:  cpu time   10.0358: real time   10.0945
    4ORBIT:  cpu time    0.0000: real time    0.0000

 total amount of memory used by VASP MPI-rank0    70184. kBytes
=======================================================================

   base      :      30000. kBytes
   nonl-proj :      23298. kBytes
   fftplans  :       3053. kBytes
   grid      :       5535. kBytes
   one-center:         80. kBytes
   wavefun   :       8218. kBytes
 
  
  
 General timing and accounting informations for this job:
 ========================================================
  
                  Total CPU time used (sec):      744.474
                            User time (sec):      739.962
                          System time (sec):        4.512
                         Elapsed time (sec):      749.398
  
                   Maximum memory used (kb):      251600.
                   Average memory used (kb):           0.
  
                          Minor page faults:       751901
                          Major page faults:            1
                 Voluntary context switches:          191
