 vasp.5.4.4.18Apr17-6-g9f103f2a35 (build Dec 13 2019 19:06:22) complex          
  
 executed on             LinuxIFC date 2021.07.02  07:47:30
 running on   12 total cores
 distrk:  each k-point on   12 cores,    1 groups
 distr:  one band on NCORES_PER_BAND=   6 cores,    2 groups


--------------------------------------------------------------------------------------------------------


 INCAR:
 POTCAR:    PAW_PBE Cu_sv_GW 05Dec2013            
 POTCAR:    PAW_PBE Al_GW 19Mar2012               
 POTCAR:    PAW_PBE O_GW 28Sep2005                
 POTCAR:    PAW_PBE Cu_sv_GW 05Dec2013            
   VRHFIN =Cu: d10 p1                                                           
   LEXCH  = PE                                                                  
   EATOM  =  5382.7943 eV,  395.6242 Ry                                         
                                                                                
   TITEL  = PAW_PBE Cu_sv_GW 05Dec2013                                          
   LULTRA =        F    use ultrasoft PP ?                                      
   IUNSCR =        1    unscreen: 0-lin 1-nonlin 2-no                           
   RPACOR =    1.400    partial core radius                                     
   POMASS =   63.546; ZVAL   =   19.000    mass and valenz                      
   RCORE  =    1.900    outmost cutoff radius                                   
   RWIGS  =    2.100; RWIGS  =    1.111    wigner-seitz radius (au A)           
   ENMAX  =  391.688; ENMIN  =  293.766 eV                                      
   RCLOC  =    1.304    cutoff for local pot                                    
   LCOR   =        T    correct aug charges                                     
   LPAW   =        T    paw PP                                                  
   EAUG   =  982.892                                                            
   RMAX   =    1.950    core radius for proj-oper                               
   RAUG   =    1.300    factor for augmentation sphere                          
   RDEP   =    2.025    radius for radial grids                                 
   RDEPT  =    1.600    core radius for aug-charge                              
                                                                                
   Atomic configuration                                                         
    9 entries                                                                   
     n  l   j            E        occ.                                          
     1  0  0.50     -8850.2467   2.0000                                         
     2  0  0.50     -1062.3498   2.0000                                         
     2  1  1.50      -916.8226   6.0000                                         
     3  0  0.50      -114.6929   2.0000                                         
     4  0  0.50        -4.6097   1.0000                                         
     3  1  1.50       -72.1325   6.0000                                         
     3  1  1.50       -76.2144   0.0000                                         
     3  2  2.50        -5.0394  10.0000                                         
     4  3  2.50        -1.3606   0.0000                                         
   Description                                                                  
     l       E           TYP  RCUT    TYP  RCUT                                 
     0   -114.6929173     23  1.330                                             
     0     -4.6097111     23  1.700                                             
     0    204.0873900     23  1.330                                             
     1    -72.1324964     23  1.650                                             
     1    -76.2143949     23  1.650                                             
     1    136.0582600     23  1.650                                             
     2     -5.0393943     23  1.900                                             
     2     27.2116520     23  1.900                                             
     2    136.0582600     23  1.900                                             
     3     27.2116520     23  1.900                                             
     3    136.0582600     23  1.900                                             
  local pseudopotential read in
  partial core-charges read in
  partial kinetic energy density read in
  kinetic energy density of atom read in
  atomic valenz-charges read in
  non local Contribution for L=           0  read in
    real space projection operators read in
  non local Contribution for L=           0  read in
    real space projection operators read in
  non local Contribution for L=           0  read in
    real space projection operators read in
  non local Contribution for L=           1  read in
    real space projection operators read in
  non local Contribution for L=           1  read in
    real space projection operators read in
  non local Contribution for L=           1  read in
    real space projection operators read in
  non local Contribution for L=           2  read in
    real space projection operators read in
  non local Contribution for L=           2  read in
    real space projection operators read in
  non local Contribution for L=           2  read in
    real space projection operators read in
  non local Contribution for L=           3  read in
    real space projection operators read in
  non local Contribution for L=           3  read in
    real space projection operators read in
    PAW grid and wavefunctions read in
 
   number of l-projection  operators is LMAX  =          11
   number of lm-projection operators is LMMAX =          41
 
 POTCAR:    PAW_PBE Al_GW 19Mar2012               
   VRHFIN =Al: s2p1                                                             
   LEXCH  = PE                                                                  
   EATOM  =    53.5387 eV,    3.9350 Ry                                         
                                                                                
   TITEL  = PAW_PBE Al_GW 19Mar2012                                             
   LULTRA =        F    use ultrasoft PP ?                                      
   IUNSCR =        1    unscreen: 0-lin 1-nonlin 2-no                           
   RPACOR =    1.500    partial core radius                                     
   POMASS =   26.982; ZVAL   =    3.000    mass and valenz                      
   RCORE  =    2.000    outmost cutoff radius                                   
   RWIGS  =    2.000; RWIGS  =    1.058    wigner-seitz radius (au A)           
   ENMAX  =  240.300; ENMIN  =  180.225 eV                                      
   ICORE  =        3    local potential                                         
   LCOR   =        T    correct aug charges                                     
   LPAW   =        T    paw PP                                                  
   EAUG   =  482.059                                                            
   DEXC   =    0.000                                                            
   RMAX   =    2.051    core radius for proj-oper                               
   RAUG   =    1.300    factor for augmentation sphere                          
   RDEP   =    2.096    radius for radial grids                                 
   RDEPT  =    1.856    core radius for aug-charge                              
                                                                                
   Atomic configuration                                                         
    7 entries                                                                   
     n  l   j            E        occ.                                          
     1  0  0.50     -1511.1048   2.0000                                         
     2  0  0.50      -108.1629   2.0000                                         
     2  1  1.50       -69.6402   6.0000                                         
     3  0  0.50        -7.7528   2.0000                                         
     3  1  1.50        -2.7121   1.0000                                         
     3  2  2.50        -2.7212   0.0000                                         
     4  3  2.50        -2.7212   0.0000                                         
   Description                                                                  
     l       E           TYP  RCUT    TYP  RCUT                                 
     0     -7.7528455     23  1.900                                             
     0     68.0291300     23  1.900                                             
     1     -2.7120682     23  1.900                                             
     1     68.0291300     23  1.900                                             
     2     -1.3605826     23  1.900                                             
     2     81.6349560     23  1.900                                             
     3     74.8320430     23  2.000                                             
  local pseudopotential read in
  partial core-charges read in
  partial kinetic energy density read in
  kinetic energy density of atom read in
  atomic valenz-charges read in
  non local Contribution for L=           0  read in
    real space projection operators read in
  non local Contribution for L=           0  read in
    real space projection operators read in
  non local Contribution for L=           1  read in
    real space projection operators read in
  non local Contribution for L=           1  read in
    real space projection operators read in
  non local Contribution for L=           2  read in
    real space projection operators read in
  non local Contribution for L=           2  read in
    real space projection operators read in
    PAW grid and wavefunctions read in
 
   number of l-projection  operators is LMAX  =           6
   number of lm-projection operators is LMMAX =          18
 
 POTCAR:    PAW_PBE O_GW 28Sep2005                
   VRHFIN =O: s2p4                                                              
   LEXCH  = PE                                                                  
   EATOM  =   432.3788 eV,   31.7789 Ry                                         
                                                                                
   TITEL  = PAW_PBE O_GW 28Sep2005                                              
   LULTRA =        F    use ultrasoft PP ?                                      
   IUNSCR =        0    unscreen: 0-lin 1-nonlin 2-no                           
   RPACOR =    0.000    partial core radius                                     
   POMASS =   16.000; ZVAL   =    6.000    mass and valenz                      
   RCORE  =    1.520    outmost cutoff radius                                   
   RWIGS  =    1.550; RWIGS  =    0.820    wigner-seitz radius (au A)           
   ENMAX  =  414.635; ENMIN  =  310.976 eV                                      
   ICORE  =        2    local potential                                         
   LCOR   =        T    correct aug charges                                     
   LPAW   =        T    paw PP                                                  
   EAUG   =  605.392                                                            
   DEXC   =    0.000                                                            
   RMAX   =    1.553    core radius for proj-oper                               
   RAUG   =    1.300    factor for augmentation sphere                          
   RDEP   =    1.550    radius for radial grids                                 
   RDEPT  =    1.329    core radius for aug-charge                              
                                                                                
   Atomic configuration                                                         
    4 entries                                                                   
     n  l   j            E        occ.                                          
     1  0  0.50      -514.6923   2.0000                                         
     2  0  0.50       -23.9615   2.0000                                         
     2  1  0.50        -9.0305   4.0000                                         
     3  2  1.50        -9.5241   0.0000                                         
   Description                                                                  
     l       E           TYP  RCUT    TYP  RCUT                                 
     0    -23.9615316     23  1.200                                             
     0     81.6349560     23  1.200                                             
     1     -9.0304908     23  1.520                                             
     1     81.6349560     23  1.520                                             
     2     -9.5240782      7  1.500                                             
  local pseudopotential read in
  kinetic energy density of atom read in
  atomic valenz-charges read in
  non local Contribution for L=           0  read in
    real space projection operators read in
  non local Contribution for L=           0  read in
    real space projection operators read in
  non local Contribution for L=           1  read in
    real space projection operators read in
  non local Contribution for L=           1  read in
    real space projection operators read in
    PAW grid and wavefunctions read in
 
   number of l-projection  operators is LMAX  =           4
   number of lm-projection operators is LMMAX =           8
 

 ----------------------------------------------------------------------------- 
|                                                                             |
|  ADVICE TO THIS USER RUNNING 'VASP/VAMP'   (HEAR YOUR MASTER'S VOICE ...):  |
|                                                                             |
|      You enforced a specific xc-type in the INCAR file,                     |
|      a different type was found on the POTCAR file                          |
|          I HOPE YOU KNOW, WHAT YOU ARE  DOING                               |
|                                                                             |
 ----------------------------------------------------------------------------- 

  PAW_PBE Cu_sv_GW 05Dec2013            :
 energy of atom  1       EATOM=-5382.7943
 kinetic energy error for atom=    0.0943 (will be added to EATOM!!)
  PAW_PBE Al_GW 19Mar2012               :
 energy of atom  2       EATOM=  -53.5387
 kinetic energy error for atom=    0.0002 (will be added to EATOM!!)
  PAW_PBE O_GW 28Sep2005                :
 energy of atom  3       EATOM= -432.3788
 kinetic energy error for atom=    0.0194 (will be added to EATOM!!)
 
 
 POSCAR: CuAlO2 BenkoF84                         
  positions in direct lattice
  velocities in cartesian coordinates
 exchange correlation table for  LEXCH =       14
   RHO(1)=    0.500       N(1)  =     2000
   RHO(2)=  100.500       N(2)  =     4000
 


--------------------------------------------------------------------------------------------------------


 ion  position               nearest neighbor table
   1  0.000  0.000  0.000-   3 1.85   4 1.85
   2  0.500  0.500  0.500-   3 1.90   4 1.90   3 1.90   4 1.90   4 1.90   3 1.90
   3  0.110  0.110  0.110-   1 1.85   2 1.90   2 1.90   2 1.90
   4  0.890  0.890  0.890-   1 1.85   2 1.90   2 1.90   2 1.90
 
  LATTYP: Found a trigonal (rhomboedric) cell.
 ALAT       =     5.8622747488
 COS(alpha) =     0.8826433487
  
  Lattice vectors:
  
 A1 = (   1.4200545446,   0.8198688751,   5.6282790774)
 A2 = (  -1.4200545446,   0.8198688751,   5.6282790774)
 A3 = (   0.0000000000,  -1.6397377403,   5.6282790774)


Analysis of symmetry for initial positions (statically):
=====================================================================
 Subroutine PRICEL returns:
 Original cell was already a primitive cell.
 

 Routine SETGRP: Setting up the symmetry group for a 
 trigonal (rhombohedral) supercell.


 Subroutine GETGRP returns: Found 12 space group operations
 (whereof 12 operations were pure point group operations)
 out of a pool of 12 trial point group operations.


The static configuration has the point symmetry D_3d.


Analysis of symmetry for dynamics (positions and initial velocities):
=====================================================================
 Subroutine PRICEL returns:
 Original cell was already a primitive cell.
 

 Routine SETGRP: Setting up the symmetry group for a 
 trigonal (rhombohedral) supercell.


 Subroutine GETGRP returns: Found 12 space group operations
 (whereof 12 operations were pure point group operations)
 out of a pool of 12 trial point group operations.


The dynamic configuration has the point symmetry D_3d.


 Subroutine INISYM returns: Found 12 space group operations
 (whereof 12 operations are pure point group operations),
 and found     1 'primitive' translations

 
 
 KPOINTS: CuMO2                                   

Automatic generation of k-mesh.
Space group operators:
 irot       det(A)        alpha          n_x          n_y          n_z        tau_x        tau_y        tau_z
    1     1.000000     0.000000     1.000000     0.000000     0.000000     0.000000     0.000000     0.000000
    2    -1.000000     0.000000     1.000000     0.000000     0.000000     0.000000     0.000000     0.000000
    3     1.000000   180.000000    -0.500000     0.866025    -0.000000     0.000000     0.000000     0.000000
    4    -1.000000   180.000000    -0.500000     0.866025    -0.000000     0.000000     0.000000     0.000000
    5     1.000000   120.000000     0.000000    -0.000000    -1.000000     0.000000     0.000000     0.000000
    6    -1.000000   120.000000     0.000000    -0.000000    -1.000000     0.000000     0.000000     0.000000
    7     1.000000   180.000000     1.000000     0.000000     0.000000     0.000000     0.000000     0.000000
    8    -1.000000   180.000000     1.000000     0.000000     0.000000     0.000000     0.000000     0.000000
    9     1.000000   120.000000     0.000000     0.000000     1.000000     0.000000     0.000000     0.000000
   10    -1.000000   120.000000     0.000000     0.000000     1.000000     0.000000     0.000000     0.000000
   11     1.000000   180.000000     0.500000     0.866025    -0.000000     0.000000     0.000000     0.000000
   12    -1.000000   180.000000     0.500000     0.866025    -0.000000     0.000000     0.000000     0.000000
 
 Subroutine IBZKPT returns following result:
 ===========================================
 
 Found    116 irreducible k-points:
 
 Following reciprocal coordinates:
            Coordinates               Weight
  0.000000  0.000000  0.000000      1.000000
  0.100000  0.000000  0.000000      6.000000
  0.200000  0.000000  0.000000      6.000000
  0.300000  0.000000  0.000000      6.000000
  0.400000  0.000000  0.000000      6.000000
  0.500000  0.000000 -0.000000      3.000000
  0.100000  0.100000  0.000000      6.000000
  0.200000  0.100000  0.000000     12.000000
  0.300000  0.100000  0.000000     12.000000
  0.400000  0.100000  0.000000     12.000000
  0.500000  0.100000  0.000000     12.000000
 -0.400000  0.100000 -0.000000     12.000000
 -0.300000  0.100000  0.000000     12.000000
 -0.200000  0.100000 -0.000000     12.000000
 -0.100000  0.100000  0.000000      6.000000
  0.200000  0.200000 -0.000000      6.000000
  0.300000  0.200000  0.000000     12.000000
  0.400000  0.200000  0.000000     12.000000
  0.500000  0.200000  0.000000     12.000000
 -0.400000  0.200000  0.000000     12.000000
 -0.300000  0.200000 -0.000000     12.000000
 -0.200000  0.200000  0.000000      6.000000
  0.300000  0.300000  0.000000      6.000000
  0.400000  0.300000  0.000000     12.000000
  0.500000  0.300000 -0.000000     12.000000
 -0.400000  0.300000  0.000000     12.000000
 -0.300000  0.300000  0.000000      6.000000
  0.400000  0.400000 -0.000000      6.000000
  0.500000  0.400000  0.000000     12.000000
 -0.400000  0.400000  0.000000      6.000000
  0.500000  0.500000  0.000000      3.000000
  0.100000  0.100000  0.100000      2.000000
  0.200000  0.100000  0.100000      6.000000
  0.300000  0.100000  0.100000      6.000000
  0.400000  0.100000  0.100000      6.000000
  0.500000  0.100000  0.100000      6.000000
 -0.400000  0.100000  0.100000      6.000000
 -0.300000  0.100000  0.100000      6.000000
 -0.200000  0.100000  0.100000      6.000000
 -0.100000  0.100000  0.100000      6.000000
  0.200000  0.200000  0.100000      6.000000
  0.300000  0.200000  0.100000     12.000000
  0.400000  0.200000  0.100000     12.000000
  0.500000  0.200000  0.100000     12.000000
 -0.400000  0.200000  0.100000     12.000000
 -0.300000  0.200000  0.100000     12.000000
 -0.200000  0.200000  0.100000     12.000000
 -0.100000  0.200000  0.100000     12.000000
  0.300000  0.300000  0.100000      6.000000
  0.400000  0.300000  0.100000     12.000000
  0.500000  0.300000  0.100000     12.000000
 -0.400000  0.300000  0.100000     12.000000
 -0.300000  0.300000  0.100000     12.000000
 -0.200000  0.300000  0.100000     12.000000
 -0.100000  0.300000  0.100000     12.000000
  0.400000  0.400000  0.100000      6.000000
  0.500000  0.400000  0.100000     12.000000
 -0.400000  0.400000  0.100000     12.000000
 -0.300000  0.400000  0.100000     12.000000
 -0.200000  0.400000  0.100000     12.000000
 -0.100000  0.400000  0.100000     12.000000
  0.500000  0.500000  0.100000      6.000000
 -0.400000  0.500000  0.100000     12.000000
 -0.300000  0.500000  0.100000     12.000000
 -0.200000  0.500000  0.100000     12.000000
 -0.100000  0.500000  0.100000      6.000000
 -0.400000 -0.400000  0.100000      6.000000
 -0.300000 -0.400000  0.100000     12.000000
 -0.200000 -0.400000  0.100000     12.000000
 -0.300000 -0.300000  0.100000      6.000000
 -0.200000 -0.300000  0.100000     12.000000
 -0.200000 -0.200000  0.100000      6.000000
  0.200000  0.200000  0.200000      2.000000
  0.300000  0.200000  0.200000      6.000000
  0.400000  0.200000  0.200000      6.000000
  0.500000  0.200000  0.200000      6.000000
 -0.400000  0.200000  0.200000      6.000000
 -0.300000  0.200000  0.200000      6.000000
 -0.200000  0.200000  0.200000      6.000000
  0.300000  0.300000  0.200000      6.000000
  0.400000  0.300000  0.200000     12.000000
  0.500000  0.300000  0.200000     12.000000
 -0.400000  0.300000  0.200000     12.000000
 -0.300000  0.300000  0.200000     12.000000
 -0.200000  0.300000  0.200000     12.000000
  0.400000  0.400000  0.200000      6.000000
  0.500000  0.400000  0.200000     12.000000
 -0.400000  0.400000  0.200000     12.000000
 -0.300000  0.400000  0.200000     12.000000
 -0.200000  0.400000  0.200000     12.000000
  0.500000  0.500000  0.200000      6.000000
 -0.400000  0.500000  0.200000     12.000000
 -0.300000  0.500000  0.200000     12.000000
 -0.200000  0.500000  0.200000      6.000000
 -0.400000 -0.400000  0.200000      6.000000
 -0.300000 -0.400000  0.200000     12.000000
 -0.300000 -0.300000  0.200000      6.000000
  0.300000  0.300000  0.300000      2.000000
  0.400000  0.300000  0.300000      6.000000
  0.500000  0.300000  0.300000      6.000000
 -0.400000  0.300000  0.300000      6.000000
 -0.300000  0.300000  0.300000      6.000000
  0.400000  0.400000  0.300000      6.000000
  0.500000  0.400000  0.300000     12.000000
 -0.400000  0.400000  0.300000     12.000000
 -0.300000  0.400000  0.300000     12.000000
  0.500000  0.500000  0.300000      6.000000
 -0.400000  0.500000  0.300000     12.000000
 -0.300000  0.500000  0.300000      6.000000
 -0.400000 -0.400000  0.300000      6.000000
  0.400000  0.400000  0.400000      2.000000
  0.500000  0.400000  0.400000      6.000000
 -0.400000  0.400000  0.400000      6.000000
  0.500000  0.500000  0.400000      6.000000
 -0.400000  0.500000  0.400000      6.000000
  0.500000  0.500000  0.500000      1.000000
 
 Following cartesian coordinates:
            Coordinates               Weight
  0.000000  0.000000  0.000000      1.000000
  0.035210  0.020328  0.005922      6.000000
  0.070420  0.040657  0.011845      6.000000
  0.105630  0.060985  0.017767      6.000000
  0.140840  0.081314  0.023690      6.000000
  0.176050  0.101642  0.029612      3.000000
  0.000000  0.040657  0.011845      6.000000
  0.035210  0.060985  0.017767     12.000000
  0.070420  0.081314  0.023690     12.000000
  0.105630  0.101642  0.029612     12.000000
  0.140840  0.121971  0.035535     12.000000
 -0.176050 -0.060985 -0.017767     12.000000
 -0.140840 -0.040657 -0.011845     12.000000
 -0.105630 -0.020328 -0.005922     12.000000
 -0.070420  0.000000  0.000000      6.000000
 -0.000000  0.081314  0.023690      6.000000
  0.035210  0.101642  0.029612     12.000000
  0.070420  0.121971  0.035535     12.000000
  0.105630  0.142299  0.041457     12.000000
 -0.211259 -0.040657 -0.011845     12.000000
 -0.176050 -0.020328 -0.005922     12.000000
 -0.140840  0.000000  0.000000      6.000000
  0.000000  0.121971  0.035535      6.000000
  0.035210  0.142299  0.041457     12.000000
  0.070420  0.162628  0.047380     12.000000
 -0.246469 -0.020328 -0.005922     12.000000
 -0.211259  0.000000  0.000000      6.000000
 -0.000000  0.162628  0.047380      6.000000
  0.035210  0.182956  0.053302     12.000000
 -0.281679  0.000000  0.000000      6.000000
  0.000000  0.203285  0.059225      3.000000
  0.000000  0.000000  0.017767      2.000000
  0.035210  0.020328  0.023690      6.000000
  0.070420  0.040657  0.029612      6.000000
  0.105630  0.060985  0.035535      6.000000
  0.140840  0.081314  0.041457      6.000000
 -0.176050 -0.101642 -0.011845      6.000000
 -0.140840 -0.081314 -0.005922      6.000000
 -0.105630 -0.060985  0.000000      6.000000
 -0.070420 -0.040657  0.005922      6.000000
 -0.000000  0.040657  0.029612      6.000000
  0.035210  0.060985  0.035535     12.000000
  0.070420  0.081314  0.041457     12.000000
  0.105630  0.101642  0.047380     12.000000
 -0.211259 -0.081314 -0.005922     12.000000
 -0.176050 -0.060985  0.000000     12.000000
 -0.140840 -0.040657  0.005922     12.000000
 -0.105630 -0.020328  0.011845     12.000000
  0.000000  0.081314  0.041457      6.000000
  0.035210  0.101642  0.047380     12.000000
  0.070420  0.121971  0.053302     12.000000
 -0.246469 -0.060985  0.000000     12.000000
 -0.211259 -0.040657  0.005922     12.000000
 -0.176050 -0.020328  0.011845     12.000000
 -0.140840  0.000000  0.017767     12.000000
  0.000000  0.121971  0.053302      6.000000
  0.035210  0.142299  0.059225     12.000000
 -0.281679 -0.040657  0.005922     12.000000
 -0.246469 -0.020328  0.011845     12.000000
 -0.211259  0.000000  0.017767     12.000000
 -0.176050  0.020328  0.023690     12.000000
  0.000000  0.162628  0.065147      6.000000
 -0.316889 -0.020328  0.011845     12.000000
 -0.281679  0.000000  0.017767     12.000000
 -0.246469  0.020328  0.023690     12.000000
 -0.211259  0.040657  0.029612      6.000000
  0.000000 -0.203285 -0.041457      6.000000
  0.035210 -0.182956 -0.035535     12.000000
  0.070420 -0.162628 -0.029612     12.000000
  0.000000 -0.162628 -0.029612      6.000000
  0.035210 -0.142299 -0.023690     12.000000
 -0.000000 -0.121971 -0.017767      6.000000
  0.000000  0.000000  0.035535      2.000000
  0.035210  0.020328  0.041457      6.000000
  0.070420  0.040657  0.047380      6.000000
  0.105630  0.060985  0.053302      6.000000
 -0.211259 -0.121971  0.000000      6.000000
 -0.176050 -0.101642  0.005922      6.000000
 -0.140840 -0.081314  0.011845      6.000000
  0.000000  0.040657  0.047380      6.000000
  0.035210  0.060985  0.053302     12.000000
  0.070420  0.081314  0.059225     12.000000
 -0.246469 -0.101642  0.005922     12.000000
 -0.211259 -0.081314  0.011845     12.000000
 -0.176050 -0.060985  0.017767     12.000000
  0.000000  0.081314  0.059225      6.000000
  0.035210  0.101642  0.065147     12.000000
 -0.281679 -0.081314  0.011845     12.000000
 -0.246469 -0.060985  0.017767     12.000000
 -0.211259 -0.040657  0.023690     12.000000
  0.000000  0.121971  0.071070      6.000000
 -0.316889 -0.060985  0.017767     12.000000
 -0.281679 -0.040657  0.023690     12.000000
 -0.246469 -0.020328  0.029612      6.000000
  0.000000 -0.243941 -0.035535      6.000000
  0.035210 -0.223613 -0.029612     12.000000
  0.000000 -0.203285 -0.023690      6.000000
  0.000000  0.000000  0.053302      2.000000
  0.035210  0.020328  0.059225      6.000000
  0.070420  0.040657  0.065147      6.000000
 -0.246469 -0.142299  0.011845      6.000000
 -0.211259 -0.121971  0.017767      6.000000
  0.000000  0.040657  0.065147      6.000000
  0.035210  0.060985  0.071070     12.000000
 -0.281679 -0.121971  0.017767     12.000000
 -0.246469 -0.101642  0.023690     12.000000
  0.000000  0.081314  0.076992      6.000000
 -0.316889 -0.101642  0.023690     12.000000
 -0.281679 -0.081314  0.029612      6.000000
 -0.000000 -0.284598 -0.029612      6.000000
  0.000000  0.000000  0.071070      2.000000
  0.035210  0.020328  0.076992      6.000000
 -0.281679 -0.162628  0.023690      6.000000
  0.000000  0.040657  0.082915      6.000000
 -0.316889 -0.142299  0.029612      6.000000
  0.000000  0.000000  0.088837      1.000000
 


--------------------------------------------------------------------------------------------------------




 Dimension of arrays:
   k-points           NKPTS =    116   k-points in BZ     NKDIM =    116   number of bands    NBANDS=     36
   number of dos      NEDOS =    301   number of ions     NIONS =      4
   non local maximal  LDIM  =     11   non local SUM 2l+1 LMDIM =     41
   total plane-waves  NPLWV = 110592
   max r-space proj   IRMAX =      1   max aug-charges    IRDMAX= 109662
   dimension x,y,z NGX =    48 NGY =   48 NGZ =   48
   dimension x,y,z NGXF=    96 NGYF=   96 NGZF=   96
   support grid    NGXF=    96 NGYF=   96 NGZF=   96
   ions per type =               1   1   2
   NGX,Y,Z   is equivalent  to a cutoff of  13.61, 13.61, 13.61 a.u.
   NGXF,Y,Z  is equivalent  to a cutoff of  27.22, 27.22, 27.22 a.u.

 SYSTEM =  unknown system                          
 POSCAR =  CuAlO2 BenkoF84                         

 Startparameter for this run:
   NWRITE =      2    write-flag & timer
   PREC   = accura    normal or accurate (medium, high low for compatibility)
   ISTART =      1    job   : 0-new  1-cont  2-samecut
   ICHARG =      0    charge: 1-file 2-atom 10-const
   ISPIN  =      1    spin polarized calculation?
   LNONCOLLINEAR =      F non collinear calculations
   LSORBIT =      F    spin-orbit coupling
   INIWAV =      1    electr: 0-lowe 1-rand  2-diag
   LASPH  =      F    aspherical Exc in radial PAW
   METAGGA=      F    non-selfconsistent MetaGGA calc.

 Electronic Relaxation 1
   ENCUT  =  550.0 eV  40.42 Ry    6.36 a.u.  11.21 11.21 11.21*2*pi/ulx,y,z
   ENINI  =  550.0     initial cutoff
   ENAUG  =  982.9 eV  augmentation charge cutoff
   NELM   =     60;   NELMIN=  2; NELMDL=  0     # of ELM steps 
   EDIFF  = 0.1E-06   stopping-criterion for ELM
   LREAL  =      F    real-space projection
   NLSPLINE    = F    spline interpolate recip. space projectors
   LCOMPAT=      F    compatible to vasp.4.4
   GGA_COMPAT  = T    GGA compatible to vasp.4.4-vasp.4.6
   LMAXPAW     = -100 max onsite density
   LMAXMIX     =    2 max onsite mixed and CHGCAR
   VOSKOWN=      0    Vosko Wilk Nusair interpolation
   ROPT   =    0.00000   0.00000   0.00000
 Ionic relaxation
   EDIFFG = 0.1E-05   stopping-criterion for IOM
   NSW    =      0    number of steps for IOM
   NBLOCK =      1;   KBLOCK =      1    inner block; outer block 
   IBRION =     -1    ionic relax: 0-MD 1-quasi-New 2-CG
   NFREE  =      0    steps in history (QN), initial steepest desc. (CG)
   ISIF   =      2    stress and relaxation
   IWAVPR =     10    prediction:  0-non 1-charg 2-wave 3-comb
   ISYM   =      2    0-nonsym 1-usesym 2-fastsym
   LCORR  =      T    Harris-Foulkes like correction to forces

   POTIM  = 0.5000    time-step for ionic-motion
   TEIN   =    0.0    initial temperature
   TEBEG  =    0.0;   TEEND  =   0.0 temperature during run
   SMASS  =  -3.00    Nose mass-parameter (am)
   estimated Nose-frequenzy (Omega)   =  0.10E-29 period in steps =****** mass=  -0.785E-27a.u.
   SCALEE = 1.0000    scale energy and forces
   NPACO  =    256;   APACO  = 16.0  distance and # of slots for P.C.
   PSTRESS=    0.0 pullay stress

  Mass of Ions in am
   POMASS =  63.55 26.98 16.00
  Ionic Valenz
   ZVAL   =  19.00  3.00  6.00
  Atomic Wigner-Seitz radii
   RWIGS  =  -1.00 -1.00 -1.00
  virtual crystal weights 
   VCA    =   1.00  1.00  1.00
   NELECT =      34.0000    total number of electrons
   NUPDOWN=      -1.0000    fix difference up-down

 DOS related values:
   EMIN   =  10.00;   EMAX   =-10.00  energy-range for DOS
   EFERMI =   0.00
   ISMEAR =     0;   SIGMA  =   0.20  broadening in eV -4-tet -1-fermi 0-gaus

 Electronic relaxation 2 (details)
   IALGO  =     68    algorithm
   LDIAG  =      T    sub-space diagonalisation (order eigenvalues)
   LSUBROT=      F    optimize rotation matrix (better conditioning)
   TURBO    =      0    0=normal 1=particle mesh
   IRESTART =      0    0=no restart 2=restart with 2 vectors
   NREBOOT  =      0    no. of reboots
   NMIN     =      0    reboot dimension
   EREF     =   0.00    reference energy to select bands
   IMIX   =      4    mixing-type and parameters
     AMIX     =   0.40;   BMIX     =  1.00
     AMIX_MAG =   1.60;   BMIX_MAG =  1.00
     AMIN     =   0.10
     WC   =   100.;   INIMIX=   1;  MIXPRE=   1;  MAXMIX= -45

 Intra band minimization:
   WEIMIN = 0.0000     energy-eigenvalue tresh-hold
   EBREAK =  0.69E-09  absolut break condition
   DEPER  =   0.30     relativ break condition  

   TIME   =   0.40     timestep for ELM

  volume/ion in A,a.u.               =       9.83        66.33
  Fermi-wavevector in a.u.,A,eV,Ry     =   1.559705  2.947414 33.098602  2.432679
  Thomas-Fermi vector in A             =   2.663024
 
 Write flags
   LWAVE        =      T    write WAVECAR
   LDOWNSAMPLE  =      F    k-point downsampling of WAVECAR
   LCHARG       =      T    write CHGCAR
   LVTOT        =      F    write LOCPOT, total local potential
   LVHAR        =      F    write LOCPOT, Hartree potential only
   LELF         =      F    write electronic localiz. function (ELF)
   LORBIT       =      0    0 simple, 1 ext, 2 COOP (PROOUT), +10 PAW based schemes


 Dipole corrections
   LMONO  =      F    monopole corrections only (constant potential shift)
   LDIPOL =      F    correct potential (dipole corrections)
   IDIPOL =      0    1-x, 2-y, 3-z, 4-all directions 
   EPSILON=  1.0000000 bulk dielectric constant

 Exchange correlation treatment:
   GGA     =    PS    GGA type
   LEXCH   =    14    internal setting for exchange type
   VOSKOWN=      0    Vosko Wilk Nusair interpolation
   LHFCALC =     F    Hartree Fock is set to
   LHFONE  =     F    Hartree Fock one center treatment
   AEXX    =    0.0000 exact exchange contribution

 Linear response parameters
   LEPSILON=     F    determine dielectric tensor
   LRPA    =     F    only Hartree local field effects (RPA)
   LNABLA  =     F    use nabla operator in PAW spheres
   LVEL    =     F    velocity operator in full k-point grid
   LINTERFAST=   F  fast interpolation
   KINTER  =     0    interpolate to denser k-point grid
   CSHIFT  =0.1000    complex shift for real part using Kramers Kronig
   OMEGAMAX=  -1.0    maximum frequency
   DEG_THRESHOLD= 0.2000000E-02 threshold for treating states as degnerate
   RTIME   =   -0.100 relaxation time in fs
  (WPLASMAI=    0.000 imaginary part of plasma frequency in eV, 0.658/RTIME)
   DFIELD  = 0.0000000 0.0000000 0.0000000 field for delta impulse in time
 
 Orbital magnetization related:
   ORBITALMAG=     F  switch on orbital magnetization
   LCHIMAG   =     F  perturbation theory with respect to B field
   DQ        =  0.001000  dq finite difference perturbation B field
   LLRAUG    =     F  two centre corrections for induced B field



--------------------------------------------------------------------------------------------------------


 Static calculation
 charge density and potential will be updated during run
 non-spin polarized calculation
 RMM-DIIS sequential band-by-band and
  variant of blocked Davidson during initial phase
 perform sub-space diagonalisation
    before iterative eigenvector-optimisation
 modified Broyden-mixing scheme, WC =      100.0
 initial mixing is a Kerker type mixing with AMIX =  0.4000 and BMIX =      1.0000
 Hartree-type preconditioning will be used
 using additional bands           19
 reciprocal scheme for non local part
 use partial core corrections
 calculate Harris-corrections to forces 
   (improved forces if not selfconsistent)
 use gradient corrections 
 use of overlap-Matrix (Vanderbilt PP)
 Gauss-broadening in eV      SIGMA  =   0.20


--------------------------------------------------------------------------------------------------------


  energy-cutoff  :      550.00
  volume of cell :       39.32
      direct lattice vectors                 reciprocal lattice vectors
     1.420054545  0.819868875  5.628279077     0.352099151  0.203284540  0.059224734
    -1.420054545  0.819868875  5.628279077    -0.352099151  0.203284540  0.059224734
     0.000000000 -1.639737740  5.628279077    -0.000000000 -0.406569080  0.059224735

  length of vectors
     5.862274751  5.862274751  5.862274749     0.410860056  0.410860056  0.410860057


 
 old parameters found on file WAVECAR:
  energy-cutoff  :      550.00
  volume of cell :       40.04
      direct lattice vectors                 reciprocal lattice vectors
     1.430123640  0.825682270  5.650699250     0.349620121  0.201853271  0.058989749
    -1.430123640  0.825682270  5.650699250    -0.349620121  0.201853271  0.058989749
     0.000000000 -1.651364530  5.650699250    -0.000000000 -0.403706543  0.058989750

  length of vectors

 
 k-points in units of 2pi/SCALE and weight: CuMO2                                   
   0.00000000  0.00000000  0.00000000       0.001
   0.03520992  0.02032845  0.00592247       0.006
   0.07041983  0.04065691  0.01184495       0.006
   0.10562975  0.06098536  0.01776742       0.006
   0.14083966  0.08131382  0.02368989       0.006
   0.17604958  0.10164227  0.02961237       0.003
   0.00000000  0.04065691  0.01184495       0.006
   0.03520992  0.06098536  0.01776742       0.012
   0.07041983  0.08131382  0.02368989       0.012
   0.10562975  0.10164227  0.02961237       0.012
   0.14083966  0.12197072  0.03553484       0.012
  -0.17604958 -0.06098536 -0.01776742       0.012
  -0.14083966 -0.04065691 -0.01184495       0.012
  -0.10562975 -0.02032845 -0.00592247       0.012
  -0.07041983  0.00000000  0.00000000       0.006
  -0.00000000  0.08131382  0.02368989       0.006
   0.03520992  0.10164227  0.02961237       0.012
   0.07041983  0.12197072  0.03553484       0.012
   0.10562975  0.14229918  0.04145731       0.012
  -0.21125949 -0.04065691 -0.01184495       0.012
  -0.17604958 -0.02032845 -0.00592247       0.012
  -0.14083966  0.00000000  0.00000000       0.006
  -0.00000000  0.12197072  0.03553484       0.006
   0.03520992  0.14229918  0.04145731       0.012
   0.07041983  0.16262763  0.04737979       0.012
  -0.24646941 -0.02032845 -0.00592247       0.012
  -0.21125949  0.00000000  0.00000000       0.006
  -0.00000000  0.16262763  0.04737979       0.006
   0.03520992  0.18295609  0.05330226       0.012
  -0.28167932  0.00000000  0.00000000       0.006
   0.00000000  0.20328454  0.05922473       0.003
   0.00000000  0.00000000  0.01776742       0.002
   0.03520992  0.02032845  0.02368989       0.006
   0.07041983  0.04065691  0.02961237       0.006
   0.10562975  0.06098536  0.03553484       0.006
   0.14083966  0.08131382  0.04145731       0.006
  -0.17604958 -0.10164227 -0.01184495       0.006
  -0.14083966 -0.08131382 -0.00592247       0.006
  -0.10562975 -0.06098536  0.00000000       0.006
  -0.07041983 -0.04065691  0.00592247       0.006
  -0.00000000  0.04065691  0.02961237       0.006
   0.03520992  0.06098536  0.03553484       0.012
   0.07041983  0.08131382  0.04145731       0.012
   0.10562975  0.10164227  0.04737979       0.012
  -0.21125949 -0.08131382 -0.00592247       0.012
  -0.17604958 -0.06098536  0.00000000       0.012
  -0.14083966 -0.04065691  0.00592247       0.012
  -0.10562975 -0.02032845  0.01184495       0.012
  -0.00000000  0.08131382  0.04145731       0.006
   0.03520992  0.10164227  0.04737979       0.012
   0.07041983  0.12197072  0.05330226       0.012
  -0.24646941 -0.06098536  0.00000000       0.012
  -0.21125949 -0.04065691  0.00592247       0.012
  -0.17604958 -0.02032845  0.01184495       0.012
  -0.14083966  0.00000000  0.01776742       0.012
   0.00000000  0.12197072  0.05330226       0.006
   0.03520992  0.14229918  0.05922473       0.012
  -0.28167932 -0.04065691  0.00592247       0.012
  -0.24646941 -0.02032845  0.01184495       0.012
  -0.21125949  0.00000000  0.01776742       0.012
  -0.17604958  0.02032845  0.02368989       0.012
  -0.00000000  0.16262763  0.06514721       0.006
  -0.31688924 -0.02032845  0.01184495       0.012
  -0.28167932  0.00000000  0.01776742       0.012
  -0.24646941  0.02032845  0.02368989       0.012
  -0.21125949  0.04065691  0.02961237       0.006
   0.00000000 -0.20328454 -0.04145731       0.006
   0.03520992 -0.18295609 -0.03553484       0.012
   0.07041983 -0.16262763 -0.02961237       0.012
   0.00000000 -0.16262763 -0.02961237       0.006
   0.03520992 -0.14229918 -0.02368989       0.012
  -0.00000000 -0.12197072 -0.01776742       0.006
   0.00000000  0.00000000  0.03553484       0.002
   0.03520992  0.02032845  0.04145731       0.006
   0.07041983  0.04065691  0.04737979       0.006
   0.10562975  0.06098536  0.05330226       0.006
  -0.21125949 -0.12197072  0.00000000       0.006
  -0.17604958 -0.10164227  0.00592247       0.006
  -0.14083966 -0.08131382  0.01184495       0.006
  -0.00000000  0.04065691  0.04737979       0.006
   0.03520992  0.06098536  0.05330226       0.012
   0.07041983  0.08131382  0.05922473       0.012
  -0.24646941 -0.10164227  0.00592247       0.012
  -0.21125949 -0.08131382  0.01184495       0.012
  -0.17604958 -0.06098536  0.01776742       0.012
   0.00000000  0.08131382  0.05922473       0.006
   0.03520992  0.10164227  0.06514721       0.012
  -0.28167932 -0.08131382  0.01184495       0.012
  -0.24646941 -0.06098536  0.01776742       0.012
  -0.21125949 -0.04065691  0.02368989       0.012
   0.00000000  0.12197072  0.07106968       0.006
  -0.31688924 -0.06098536  0.01776742       0.012
  -0.28167932 -0.04065691  0.02368989       0.012
  -0.24646941 -0.02032845  0.02961237       0.006
   0.00000000 -0.24394145 -0.03553484       0.006
   0.03520992 -0.22361299 -0.02961237       0.012
   0.00000000 -0.20328454 -0.02368989       0.006
  -0.00000000  0.00000000  0.05330226       0.002
   0.03520992  0.02032845  0.05922473       0.006
   0.07041983  0.04065691  0.06514721       0.006
  -0.24646941 -0.14229918  0.01184495       0.006
  -0.21125949 -0.12197072  0.01776742       0.006
  -0.00000000  0.04065691  0.06514721       0.006
   0.03520992  0.06098536  0.07106968       0.012
  -0.28167932 -0.12197072  0.01776742       0.012
  -0.24646941 -0.10164227  0.02368989       0.012
   0.00000000  0.08131382  0.07699215       0.006
  -0.31688924 -0.10164227  0.02368989       0.012
  -0.28167932 -0.08131382  0.02961237       0.006
  -0.00000000 -0.28459836 -0.02961237       0.006
   0.00000000  0.00000000  0.07106968       0.002
   0.03520992  0.02032845  0.07699215       0.006
  -0.28167932 -0.16262763  0.02368989       0.006
   0.00000000  0.04065691  0.08291463       0.006
  -0.31688924 -0.14229918  0.02961237       0.006
  -0.00000000  0.00000000  0.08883710       0.001
 
 k-points in reciprocal lattice and weights: CuMO2                                   
   0.00000000  0.00000000  0.00000000       0.001
   0.10000000  0.00000000  0.00000000       0.006
   0.20000000  0.00000000  0.00000000       0.006
   0.30000000  0.00000000  0.00000000       0.006
   0.40000000  0.00000000  0.00000000       0.006
   0.50000000  0.00000000 -0.00000000       0.003
   0.10000000  0.10000000  0.00000000       0.006
   0.20000000  0.10000000  0.00000000       0.012
   0.30000000  0.10000000  0.00000000       0.012
   0.40000000  0.10000000  0.00000000       0.012
   0.50000000  0.10000000  0.00000000       0.012
  -0.40000000  0.10000000 -0.00000000       0.012
  -0.30000000  0.10000000  0.00000000       0.012
  -0.20000000  0.10000000 -0.00000000       0.012
  -0.10000000  0.10000000  0.00000000       0.006
   0.20000000  0.20000000 -0.00000000       0.006
   0.30000000  0.20000000  0.00000000       0.012
   0.40000000  0.20000000  0.00000000       0.012
   0.50000000  0.20000000  0.00000000       0.012
  -0.40000000  0.20000000  0.00000000       0.012
  -0.30000000  0.20000000 -0.00000000       0.012
  -0.20000000  0.20000000  0.00000000       0.006
   0.30000000  0.30000000  0.00000000       0.006
   0.40000000  0.30000000  0.00000000       0.012
   0.50000000  0.30000000 -0.00000000       0.012
  -0.40000000  0.30000000  0.00000000       0.012
  -0.30000000  0.30000000  0.00000000       0.006
   0.40000000  0.40000000 -0.00000000       0.006
   0.50000000  0.40000000  0.00000000       0.012
  -0.40000000  0.40000000  0.00000000       0.006
   0.50000000  0.50000000  0.00000000       0.003
   0.10000000  0.10000000  0.10000000       0.002
   0.20000000  0.10000000  0.10000000       0.006
   0.30000000  0.10000000  0.10000000       0.006
   0.40000000  0.10000000  0.10000000       0.006
   0.50000000  0.10000000  0.10000000       0.006
  -0.40000000  0.10000000  0.10000000       0.006
  -0.30000000  0.10000000  0.10000000       0.006
  -0.20000000  0.10000000  0.10000000       0.006
  -0.10000000  0.10000000  0.10000000       0.006
   0.20000000  0.20000000  0.10000000       0.006
   0.30000000  0.20000000  0.10000000       0.012
   0.40000000  0.20000000  0.10000000       0.012
   0.50000000  0.20000000  0.10000000       0.012
  -0.40000000  0.20000000  0.10000000       0.012
  -0.30000000  0.20000000  0.10000000       0.012
  -0.20000000  0.20000000  0.10000000       0.012
  -0.10000000  0.20000000  0.10000000       0.012
   0.30000000  0.30000000  0.10000000       0.006
   0.40000000  0.30000000  0.10000000       0.012
   0.50000000  0.30000000  0.10000000       0.012
  -0.40000000  0.30000000  0.10000000       0.012
  -0.30000000  0.30000000  0.10000000       0.012
  -0.20000000  0.30000000  0.10000000       0.012
  -0.10000000  0.30000000  0.10000000       0.012
   0.40000000  0.40000000  0.10000000       0.006
   0.50000000  0.40000000  0.10000000       0.012
  -0.40000000  0.40000000  0.10000000       0.012
  -0.30000000  0.40000000  0.10000000       0.012
  -0.20000000  0.40000000  0.10000000       0.012
  -0.10000000  0.40000000  0.10000000       0.012
   0.50000000  0.50000000  0.10000000       0.006
  -0.40000000  0.50000000  0.10000000       0.012
  -0.30000000  0.50000000  0.10000000       0.012
  -0.20000000  0.50000000  0.10000000       0.012
  -0.10000000  0.50000000  0.10000000       0.006
  -0.40000000 -0.40000000  0.10000000       0.006
  -0.30000000 -0.40000000  0.10000000       0.012
  -0.20000000 -0.40000000  0.10000000       0.012
  -0.30000000 -0.30000000  0.10000000       0.006
  -0.20000000 -0.30000000  0.10000000       0.012
  -0.20000000 -0.20000000  0.10000000       0.006
   0.20000000  0.20000000  0.20000000       0.002
   0.30000000  0.20000000  0.20000000       0.006
   0.40000000  0.20000000  0.20000000       0.006
   0.50000000  0.20000000  0.20000000       0.006
  -0.40000000  0.20000000  0.20000000       0.006
  -0.30000000  0.20000000  0.20000000       0.006
  -0.20000000  0.20000000  0.20000000       0.006
   0.30000000  0.30000000  0.20000000       0.006
   0.40000000  0.30000000  0.20000000       0.012
   0.50000000  0.30000000  0.20000000       0.012
  -0.40000000  0.30000000  0.20000000       0.012
  -0.30000000  0.30000000  0.20000000       0.012
  -0.20000000  0.30000000  0.20000000       0.012
   0.40000000  0.40000000  0.20000000       0.006
   0.50000000  0.40000000  0.20000000       0.012
  -0.40000000  0.40000000  0.20000000       0.012
  -0.30000000  0.40000000  0.20000000       0.012
  -0.20000000  0.40000000  0.20000000       0.012
   0.50000000  0.50000000  0.20000000       0.006
  -0.40000000  0.50000000  0.20000000       0.012
  -0.30000000  0.50000000  0.20000000       0.012
  -0.20000000  0.50000000  0.20000000       0.006
  -0.40000000 -0.40000000  0.20000000       0.006
  -0.30000000 -0.40000000  0.20000000       0.012
  -0.30000000 -0.30000000  0.20000000       0.006
   0.30000000  0.30000000  0.30000000       0.002
   0.40000000  0.30000000  0.30000000       0.006
   0.50000000  0.30000000  0.30000000       0.006
  -0.40000000  0.30000000  0.30000000       0.006
  -0.30000000  0.30000000  0.30000000       0.006
   0.40000000  0.40000000  0.30000000       0.006
   0.50000000  0.40000000  0.30000000       0.012
  -0.40000000  0.40000000  0.30000000       0.012
  -0.30000000  0.40000000  0.30000000       0.012
   0.50000000  0.50000000  0.30000000       0.006
  -0.40000000  0.50000000  0.30000000       0.012
  -0.30000000  0.50000000  0.30000000       0.006
  -0.40000000 -0.40000000  0.30000000       0.006
   0.40000000  0.40000000  0.40000000       0.002
   0.50000000  0.40000000  0.40000000       0.006
  -0.40000000  0.40000000  0.40000000       0.006
   0.50000000  0.50000000  0.40000000       0.006
  -0.40000000  0.50000000  0.40000000       0.006
   0.50000000  0.50000000  0.50000000       0.001
 
 position of ions in fractional coordinates (direct lattice) 
   0.00000000  0.00000000  0.00000000
   0.50000000  0.50000000  0.50000000
   0.10956395  0.10956395  0.10956395
   0.89043605  0.89043605  0.89043605
 
 position of ions in cartesian coordinates  (Angst):
   0.00000000  0.00000000  0.00000000
   0.00000000  0.00000000  8.44241862
   0.00000000  0.00000000  1.84996950
   0.00000000  0.00000001 15.03486773
 


--------------------------------------------------------------------------------------------------------


 k-point  1 :   0.0000 0.0000 0.0000  plane waves:    1191
 k-point  2 :   0.1000 0.0000 0.0000  plane waves:    1182
 k-point  3 :   0.2000 0.0000 0.0000  plane waves:    1159
 k-point  4 :   0.3000 0.0000 0.0000  plane waves:    1150
 k-point  5 :   0.4000 0.0000 0.0000  plane waves:    1142
 k-point  6 :   0.5000 0.0000-0.0000  plane waves:    1140
 k-point  7 :   0.1000 0.1000 0.0000  plane waves:    1176
 k-point  8 :   0.2000 0.1000 0.0000  plane waves:    1159
 k-point  9 :   0.3000 0.1000 0.0000  plane waves:    1161
 k-point 10 :   0.4000 0.1000 0.0000  plane waves:    1150
 k-point 11 :   0.5000 0.1000 0.0000  plane waves:    1146
 k-point 12 :  -0.4000 0.1000-0.0000  plane waves:    1146
 k-point 13 :  -0.3000 0.1000 0.0000  plane waves:    1146
 k-point 14 :  -0.2000 0.1000-0.0000  plane waves:    1154
 k-point 15 :  -0.1000 0.1000 0.0000  plane waves:    1161
 k-point 16 :   0.2000 0.2000-0.0000  plane waves:    1152
 k-point 17 :   0.3000 0.2000 0.0000  plane waves:    1148
 k-point 18 :   0.4000 0.2000 0.0000  plane waves:    1150
 k-point 19 :   0.5000 0.2000 0.0000  plane waves:    1150
 k-point 20 :  -0.4000 0.2000 0.0000  plane waves:    1148
 k-point 21 :  -0.3000 0.2000-0.0000  plane waves:    1147
 k-point 22 :  -0.2000 0.2000 0.0000  plane waves:    1147
 k-point 23 :   0.3000 0.3000 0.0000  plane waves:    1155
 k-point 24 :   0.4000 0.3000 0.0000  plane waves:    1146
 k-point 25 :   0.5000 0.3000-0.0000  plane waves:    1149
 k-point 26 :  -0.4000 0.3000 0.0000  plane waves:    1147
 k-point 27 :  -0.3000 0.3000 0.0000  plane waves:    1152
 k-point 28 :   0.4000 0.4000-0.0000  plane waves:    1150
 k-point 29 :   0.5000 0.4000 0.0000  plane waves:    1146
 k-point 30 :  -0.4000 0.4000 0.0000  plane waves:    1154
 k-point 31 :   0.5000 0.5000 0.0000  plane waves:    1142
 k-point 32 :   0.1000 0.1000 0.1000  plane waves:    1185
 k-point 33 :   0.2000 0.1000 0.1000  plane waves:    1172
 k-point 34 :   0.3000 0.1000 0.1000  plane waves:    1167
 k-point 35 :   0.4000 0.1000 0.1000  plane waves:    1155
 k-point 36 :   0.5000 0.1000 0.1000  plane waves:    1140
 k-point 37 :  -0.4000 0.1000 0.1000  plane waves:    1138
 k-point 38 :  -0.3000 0.1000 0.1000  plane waves:    1139
 k-point 39 :  -0.2000 0.1000 0.1000  plane waves:    1141
 k-point 40 :  -0.1000 0.1000 0.1000  plane waves:    1156
 k-point 41 :   0.2000 0.2000 0.1000  plane waves:    1174
 k-point 42 :   0.3000 0.2000 0.1000  plane waves:    1161
 k-point 43 :   0.4000 0.2000 0.1000  plane waves:    1163
 k-point 44 :   0.5000 0.2000 0.1000  plane waves:    1149
 k-point 45 :  -0.4000 0.2000 0.1000  plane waves:    1145
 k-point 46 :  -0.3000 0.2000 0.1000  plane waves:    1146
 k-point 47 :  -0.2000 0.2000 0.1000  plane waves:    1144
 k-point 48 :  -0.1000 0.2000 0.1000  plane waves:    1149
 k-point 49 :   0.3000 0.3000 0.1000  plane waves:    1157
 k-point 50 :   0.4000 0.3000 0.1000  plane waves:    1154
 k-point 51 :   0.5000 0.3000 0.1000  plane waves:    1150
 k-point 52 :  -0.4000 0.3000 0.1000  plane waves:    1150
 k-point 53 :  -0.3000 0.3000 0.1000  plane waves:    1151
 k-point 54 :  -0.2000 0.3000 0.1000  plane waves:    1146
 k-point 55 :  -0.1000 0.3000 0.1000  plane waves:    1144
 k-point 56 :   0.4000 0.4000 0.1000  plane waves:    1158
 k-point 57 :   0.5000 0.4000 0.1000  plane waves:    1151
 k-point 58 :  -0.4000 0.4000 0.1000  plane waves:    1151
 k-point 59 :  -0.3000 0.4000 0.1000  plane waves:    1147
 k-point 60 :  -0.2000 0.4000 0.1000  plane waves:    1145
 k-point 61 :  -0.1000 0.4000 0.1000  plane waves:    1150
 k-point 62 :   0.5000 0.5000 0.1000  plane waves:    1146
 k-point 63 :  -0.4000 0.5000 0.1000  plane waves:    1147
 k-point 64 :  -0.3000 0.5000 0.1000  plane waves:    1151
 k-point 65 :  -0.2000 0.5000 0.1000  plane waves:    1150
 k-point 66 :  -0.1000 0.5000 0.1000  plane waves:    1144
 k-point 67 :  -0.4000-0.4000 0.1000  plane waves:    1139
 k-point 68 :  -0.3000-0.4000 0.1000  plane waves:    1142
 k-point 69 :  -0.2000-0.4000 0.1000  plane waves:    1147
 k-point 70 :  -0.3000-0.3000 0.1000  plane waves:    1155
 k-point 71 :  -0.2000-0.3000 0.1000  plane waves:    1144
 k-point 72 :  -0.2000-0.2000 0.1000  plane waves:    1144
 k-point 73 :   0.2000 0.2000 0.2000  plane waves:    1185
 k-point 74 :   0.3000 0.2000 0.2000  plane waves:    1167
 k-point 75 :   0.4000 0.2000 0.2000  plane waves:    1161
 k-point 76 :   0.5000 0.2000 0.2000  plane waves:    1153
 k-point 77 :  -0.4000 0.2000 0.2000  plane waves:    1130
 k-point 78 :  -0.3000 0.2000 0.2000  plane waves:    1141
 k-point 79 :  -0.2000 0.2000 0.2000  plane waves:    1147
 k-point 80 :   0.3000 0.3000 0.2000  plane waves:    1167
 k-point 81 :   0.4000 0.3000 0.2000  plane waves:    1157
 k-point 82 :   0.5000 0.3000 0.2000  plane waves:    1158
 k-point 83 :  -0.4000 0.3000 0.2000  plane waves:    1150
 k-point 84 :  -0.3000 0.3000 0.2000  plane waves:    1142
 k-point 85 :  -0.2000 0.3000 0.2000  plane waves:    1139
 k-point 86 :   0.4000 0.4000 0.2000  plane waves:    1157
 k-point 87 :   0.5000 0.4000 0.2000  plane waves:    1154
 k-point 88 :  -0.4000 0.4000 0.2000  plane waves:    1151
 k-point 89 :  -0.3000 0.4000 0.2000  plane waves:    1148
 k-point 90 :  -0.2000 0.4000 0.2000  plane waves:    1146
 k-point 91 :   0.5000 0.5000 0.2000  plane waves:    1162
 k-point 92 :  -0.4000 0.5000 0.2000  plane waves:    1155
 k-point 93 :  -0.3000 0.5000 0.2000  plane waves:    1153
 k-point 94 :  -0.2000 0.5000 0.2000  plane waves:    1144
 k-point 95 :  -0.4000-0.4000 0.2000  plane waves:    1141
 k-point 96 :  -0.3000-0.4000 0.2000  plane waves:    1147
 k-point 97 :  -0.3000-0.3000 0.2000  plane waves:    1144
 k-point 98 :   0.3000 0.3000 0.3000  plane waves:    1168
 k-point 99 :   0.4000 0.3000 0.3000  plane waves:    1167
 k-point ** :   0.5000 0.3000 0.3000  plane waves:    1162
 k-point ** :  -0.4000 0.3000 0.3000  plane waves:    1154
 k-point ** :  -0.3000 0.3000 0.3000  plane waves:    1145
 k-point ** :   0.4000 0.4000 0.3000  plane waves:    1166
 k-point ** :   0.5000 0.4000 0.3000  plane waves:    1158
 k-point ** :  -0.4000 0.4000 0.3000  plane waves:    1162
 k-point ** :  -0.3000 0.4000 0.3000  plane waves:    1155
 k-point ** :   0.5000 0.5000 0.3000  plane waves:    1165
 k-point ** :  -0.4000 0.5000 0.3000  plane waves:    1158
 k-point ** :  -0.3000 0.5000 0.3000  plane waves:    1148
 k-point ** :  -0.4000-0.4000 0.3000  plane waves:    1160
 k-point ** :   0.4000 0.4000 0.4000  plane waves:    1159
 k-point ** :   0.5000 0.4000 0.4000  plane waves:    1161
 k-point ** :  -0.4000 0.4000 0.4000  plane waves:    1158
 k-point ** :   0.5000 0.5000 0.4000  plane waves:    1160
 k-point ** :  -0.4000 0.5000 0.4000  plane waves:    1158
 k-point ** :   0.5000 0.5000 0.5000  plane waves:    1156

 maximum and minimum number of plane-waves per node :       206      175

 maximum number of plane-waves:      1191
 maximum index in each direction: 
   IXMAX=   11   IYMAX=   11   IZMAX=   11
   IXMIN=  -11   IYMIN=  -11   IZMIN=  -11


 parallel 3D FFT for wavefunctions:
    minimum data exchange during FFTs selected (reduces bandwidth)
 parallel 3D FFT for charge:
    minimum data exchange during FFTs selected (reduces bandwidth)


 total amount of memory used by VASP MPI-rank0    68708. kBytes
=======================================================================

   base      :      30000. kBytes
   nonl-proj :      22156. kBytes
   fftplans  :       3053. kBytes
   grid      :       5535. kBytes
   one-center:         80. kBytes
   wavefun   :       7884. kBytes
 
     INWAV:  cpu time    0.2916: real time    0.2925
 Broyden mixing: mesh for mixing (old mesh)
   NGX = 23   NGY = 23   NGZ = 23
  (NGX  = 96   NGY  = 96   NGZ  = 96)
  gives a total of  12167 points

 charge density for first step will be calculated from the start-wavefunctions


--------------------------------------------------------------------------------------------------------


 Maximum index for augmentation-charges         8947 (set IRDMAX)


--------------------------------------------------------------------------------------------------------


 initial charge from wavefunction
 First call to EWALD:  gamma=   0.521
 Maximum number of real-space cells 4x 4x 4
 Maximum number of reciprocal cells 4x 4x 4

    FEWALD:  cpu time    0.0017: real time    0.0017


--------------------------------------- Iteration      1(   1)  ---------------------------------------


    POTLOK:  cpu time    0.0457: real time    0.0460
    SETDIJ:  cpu time    0.0115: real time    0.0116
     EDDAV:  cpu time    3.9629: real time    3.9890
       DOS:  cpu time    0.0022: real time    0.0022
    CHARGE:  cpu time    0.2453: real time    0.2463
    MIXING:  cpu time    0.0018: real time    0.0018
    --------------------------------------------
      LOOP:  cpu time    4.2694: real time    4.2969

 eigenvalue-minimisations  : 10108
 total energy-change (2. order) :-0.2741798E+02  (-0.4753408E-02)
 number of electron      34.0000002 magnetization 
 augmentation part       11.5398956 magnetization 

 Broyden mixing:
  rms(total) = 0.63321E-01    rms(broyden)= 0.63316E-01
  rms(prec ) = 0.10193E+00
  weight for this iteration     100.00

 Free energy of the ion-electron system (eV)
  ---------------------------------------------------
  alpha Z        PSCENC =       167.28213847
  Ewald energy   TEWEN  =     -3351.06778558
  -Hartree energ DENC   =     -2402.88279582
  -exchange      EXHF   =         0.00000000
  -V(xc)+E(xc)   XCENC  =       180.99778902
  PAW double counting   =      5404.62236688    -5729.61816757
  entropy T*S    EENTRO =        -0.00000000
  eigenvalues    EBANDS =      -590.25257798
  atomic energy  EATOM  =      6293.50105541
  Solvation  Ediel_sol  =         0.00000000
  ---------------------------------------------------
  free energy    TOTEN  =       -27.41797717 eV

  energy without entropy =      -27.41797717  energy(sigma->0) =      -27.41797717


--------------------------------------------------------------------------------------------------------




--------------------------------------- Iteration      1(   2)  ---------------------------------------


    POTLOK:  cpu time    0.0455: real time    0.0457
    SETDIJ:  cpu time    0.0117: real time    0.0118
    EDDIAG:  cpu time    0.9160: real time    0.9212
  RMM-DIIS:  cpu time    5.0856: real time    5.1189
    ORTHCH:  cpu time    0.0560: real time    0.0562
       DOS:  cpu time    0.0021: real time    0.0021
    CHARGE:  cpu time    0.2401: real time    0.2411
    MIXING:  cpu time    0.0021: real time    0.0021
    --------------------------------------------
      LOOP:  cpu time    6.3590: real time    6.3991

 eigenvalue-minimisations  : 11111
 total energy-change (2. order) : 0.8448164E-03  (-0.4933952E-02)
 number of electron      34.0000002 magnetization 
 augmentation part       11.6294912 magnetization 

 Broyden mixing:
  rms(total) = 0.66280E-01    rms(broyden)= 0.66263E-01
  rms(prec ) = 0.11113E+00
  weight for this iteration     100.00

 eigenvalues of (default mixing * dielectric matrix)
  average eigenvalue GAMMA=   0.4896
  0.4896

 Free energy of the ion-electron system (eV)
  ---------------------------------------------------
  alpha Z        PSCENC =       167.28213847
  Ewald energy   TEWEN  =     -3351.06778558
  -Hartree energ DENC   =     -2398.10922610
  -exchange      EXHF   =         0.00000000
  -V(xc)+E(xc)   XCENC  =       180.84437386
  PAW double counting   =      5397.19540285    -5720.40021332
  entropy T*S    EENTRO =        -0.00000000
  eigenvalues    EBANDS =      -596.66287795
  atomic energy  EATOM  =      6293.50105541
  Solvation  Ediel_sol  =         0.00000000
  ---------------------------------------------------
  free energy    TOTEN  =       -27.41713235 eV

  energy without entropy =      -27.41713235  energy(sigma->0) =      -27.41713235


--------------------------------------------------------------------------------------------------------




--------------------------------------- Iteration      1(   3)  ---------------------------------------


    POTLOK:  cpu time    0.0455: real time    0.0457
    SETDIJ:  cpu time    0.0115: real time    0.0116
    EDDIAG:  cpu time    0.9125: real time    0.9177
  RMM-DIIS:  cpu time    4.7703: real time    4.8012
    ORTHCH:  cpu time    0.0553: real time    0.0555
       DOS:  cpu time    0.0022: real time    0.0022
    CHARGE:  cpu time    0.2408: real time    0.2417
    MIXING:  cpu time    0.0021: real time    0.0021
    --------------------------------------------
      LOOP:  cpu time    6.0401: real time    6.0776

 eigenvalue-minimisations  : 10434
 total energy-change (2. order) : 0.5872766E-02  (-0.8605187E-03)
 number of electron      34.0000002 magnetization 
 augmentation part       11.5820209 magnetization 

 Broyden mixing:
  rms(total) = 0.29328E-02    rms(broyden)= 0.28690E-02
  rms(prec ) = 0.43980E-02
  weight for this iteration     100.00

 eigenvalues of (default mixing * dielectric matrix)
  average eigenvalue GAMMA=   0.8409
  1.2182  0.4635

 Free energy of the ion-electron system (eV)
  ---------------------------------------------------
  alpha Z        PSCENC =       167.28213847
  Ewald energy   TEWEN  =     -3351.06778558
  -Hartree energ DENC   =     -2400.62753853
  -exchange      EXHF   =         0.00000000
  -V(xc)+E(xc)   XCENC  =       180.92216249
  PAW double counting   =      5401.42212405    -5725.37332121
  entropy T*S    EENTRO =        -0.00000000
  eigenvalues    EBANDS =      -593.47009469
  atomic energy  EATOM  =      6293.50105541
  Solvation  Ediel_sol  =         0.00000000
  ---------------------------------------------------
  free energy    TOTEN  =       -27.41125958 eV

  energy without entropy =      -27.41125958  energy(sigma->0) =      -27.41125958


--------------------------------------------------------------------------------------------------------




--------------------------------------- Iteration      1(   4)  ---------------------------------------


    POTLOK:  cpu time    0.0451: real time    0.0454
    SETDIJ:  cpu time    0.0115: real time    0.0116
    EDDIAG:  cpu time    0.9105: real time    0.9155
  RMM-DIIS:  cpu time    5.3369: real time    5.3727
    ORTHCH:  cpu time    0.0552: real time    0.0554
       DOS:  cpu time    0.0022: real time    0.0022
    CHARGE:  cpu time    0.2401: real time    0.2411
    MIXING:  cpu time    0.0020: real time    0.0020
    --------------------------------------------
      LOOP:  cpu time    6.6035: real time    6.6460

 eigenvalue-minimisations  : 11837
 total energy-change (2. order) :-0.6904603E-04  (-0.4711877E-04)
 number of electron      34.0000002 magnetization 
 augmentation part       11.5869020 magnetization 

 Broyden mixing:
  rms(total) = 0.40112E-02    rms(broyden)= 0.40110E-02
  rms(prec ) = 0.70873E-02
  weight for this iteration     100.00

 eigenvalues of (default mixing * dielectric matrix)
  average eigenvalue GAMMA=   0.7749
  1.4034  0.5266  0.3945

 Free energy of the ion-electron system (eV)
  ---------------------------------------------------
  alpha Z        PSCENC =       167.28213847
  Ewald energy   TEWEN  =     -3351.06778558
  -Hartree energ DENC   =     -2400.51903904
  -exchange      EXHF   =         0.00000000
  -V(xc)+E(xc)   XCENC  =       180.91802499
  PAW double counting   =      5401.36102327    -5725.24089234
  entropy T*S    EENTRO =        -0.00000000
  eigenvalues    EBANDS =      -593.64585380
  atomic energy  EATOM  =      6293.50105541
  Solvation  Ediel_sol  =         0.00000000
  ---------------------------------------------------
  free energy    TOTEN  =       -27.41132863 eV

  energy without entropy =      -27.41132863  energy(sigma->0) =      -27.41132863


--------------------------------------------------------------------------------------------------------




--------------------------------------- Iteration      1(   5)  ---------------------------------------


    POTLOK:  cpu time    0.0449: real time    0.0452
    SETDIJ:  cpu time    0.0115: real time    0.0116
    EDDIAG:  cpu time    0.9140: real time    0.9192
  RMM-DIIS:  cpu time    5.5318: real time    5.5692
    ORTHCH:  cpu time    0.0558: real time    0.0561
       DOS:  cpu time    0.0023: real time    0.0023
    CHARGE:  cpu time    0.2538: real time    0.2551
    MIXING:  cpu time    0.0043: real time    0.0043
    --------------------------------------------
      LOOP:  cpu time    6.8185: real time    6.8631

 eigenvalue-minimisations  : 12273
 total energy-change (2. order) : 0.9282212E-06  (-0.9288898E-05)
 number of electron      34.0000002 magnetization 
 augmentation part       11.5865170 magnetization 

 Broyden mixing:
  rms(total) = 0.34098E-02    rms(broyden)= 0.34097E-02
  rms(prec ) = 0.60412E-02
  weight for this iteration     100.00

 eigenvalues of (default mixing * dielectric matrix)
  average eigenvalue GAMMA=   0.9500
  1.3194  0.4514  1.0147  1.0147

 Free energy of the ion-electron system (eV)
  ---------------------------------------------------
  alpha Z        PSCENC =       167.28213847
  Ewald energy   TEWEN  =     -3351.06778558
  -Hartree energ DENC   =     -2400.56626789
  -exchange      EXHF   =         0.00000000
  -V(xc)+E(xc)   XCENC  =       180.91957125
  PAW double counting   =      5401.46469157    -5725.34047169
  entropy T*S    EENTRO =        -0.00000000
  eigenvalues    EBANDS =      -593.60425925
  atomic energy  EATOM  =      6293.50105541
  Solvation  Ediel_sol  =         0.00000000
  ---------------------------------------------------
  free energy    TOTEN  =       -27.41132770 eV

  energy without entropy =      -27.41132770  energy(sigma->0) =      -27.41132770


--------------------------------------------------------------------------------------------------------




--------------------------------------- Iteration      1(   6)  ---------------------------------------


    POTLOK:  cpu time    0.0510: real time    0.0513
    SETDIJ:  cpu time    0.0124: real time    0.0125
    EDDIAG:  cpu time    0.9227: real time    0.9280
  RMM-DIIS:  cpu time    5.1932: real time    5.2278
    ORTHCH:  cpu time    0.0529: real time    0.0531
       DOS:  cpu time    0.0021: real time    0.0022
    CHARGE:  cpu time    0.2398: real time    0.2408
    MIXING:  cpu time    0.0023: real time    0.0023
    --------------------------------------------
      LOOP:  cpu time    6.4765: real time    6.5180

 eigenvalue-minimisations  : 11196
 total energy-change (2. order) : 0.1168499E-04  (-0.1376615E-05)
 number of electron      34.0000002 magnetization 
 augmentation part       11.5856014 magnetization 

 Broyden mixing:
  rms(total) = 0.19694E-02    rms(broyden)= 0.19692E-02
  rms(prec ) = 0.34839E-02
  weight for this iteration     100.00

 eigenvalues of (default mixing * dielectric matrix)
  average eigenvalue GAMMA=   1.1409
  2.1445  0.4483  0.7841  1.1637  1.1637

 Free energy of the ion-electron system (eV)
  ---------------------------------------------------
  alpha Z        PSCENC =       167.28213847
  Ewald energy   TEWEN  =     -3351.06778558
  -Hartree energ DENC   =     -2400.68039661
  -exchange      EXHF   =         0.00000000
  -V(xc)+E(xc)   XCENC  =       180.92353002
  PAW double counting   =      5401.77211632    -5725.62676811
  entropy T*S    EENTRO =        -0.00000000
  eigenvalues    EBANDS =      -593.51520594
  atomic energy  EATOM  =      6293.50105541
  Solvation  Ediel_sol  =         0.00000000
  ---------------------------------------------------
  free energy    TOTEN  =       -27.41131602 eV

  energy without entropy =      -27.41131602  energy(sigma->0) =      -27.41131602


--------------------------------------------------------------------------------------------------------




--------------------------------------- Iteration      1(   7)  ---------------------------------------


    POTLOK:  cpu time    0.0444: real time    0.0446
    SETDIJ:  cpu time    0.0113: real time    0.0114
    EDDIAG:  cpu time    0.9125: real time    0.9178
  RMM-DIIS:  cpu time    4.9865: real time    5.0194
    ORTHCH:  cpu time    0.0555: real time    0.0557
       DOS:  cpu time    0.0022: real time    0.0022
    CHARGE:  cpu time    0.2405: real time    0.2415
    MIXING:  cpu time    0.0022: real time    0.0023
    --------------------------------------------
      LOOP:  cpu time    6.2551: real time    6.2948

 eigenvalue-minimisations  : 10833
 total energy-change (2. order) : 0.5764903E-05  (-0.9491373E-06)
 number of electron      34.0000002 magnetization 
 augmentation part       11.5845290 magnetization 

 Broyden mixing:
  rms(total) = 0.26911E-03    rms(broyden)= 0.26757E-03
  rms(prec ) = 0.46236E-03
  weight for this iteration     100.00

 eigenvalues of (default mixing * dielectric matrix)
  average eigenvalue GAMMA=   1.2565
  1.9141  1.9141  0.4486  0.9278  1.1671  1.1671

 Free energy of the ion-electron system (eV)
  ---------------------------------------------------
  alpha Z        PSCENC =       167.28213847
  Ewald energy   TEWEN  =     -3351.06778558
  -Hartree energ DENC   =     -2400.80519864
  -exchange      EXHF   =         0.00000000
  -V(xc)+E(xc)   XCENC  =       180.92765451
  PAW double counting   =      5402.07326759    -5725.90822753
  entropy T*S    EENTRO =        -0.00000000
  eigenvalues    EBANDS =      -593.41421448
  atomic energy  EATOM  =      6293.50105541
  Solvation  Ediel_sol  =         0.00000000
  ---------------------------------------------------
  free energy    TOTEN  =       -27.41131025 eV

  energy without entropy =      -27.41131025  energy(sigma->0) =      -27.41131025


--------------------------------------------------------------------------------------------------------




--------------------------------------- Iteration      1(   8)  ---------------------------------------


    POTLOK:  cpu time    0.0459: real time    0.0462
    SETDIJ:  cpu time    0.0111: real time    0.0112
    EDDIAG:  cpu time    0.9132: real time    0.9186
  RMM-DIIS:  cpu time    5.3329: real time    5.3680
    ORTHCH:  cpu time    0.0527: real time    0.0529
       DOS:  cpu time    0.0022: real time    0.0022
    CHARGE:  cpu time    0.2385: real time    0.2395
    MIXING:  cpu time    0.0022: real time    0.0022
    --------------------------------------------
      LOOP:  cpu time    6.5988: real time    6.6407

 eigenvalue-minimisations  : 11724
 total energy-change (2. order) :-0.7491453E-06  (-0.7383637E-06)
 number of electron      34.0000002 magnetization 
 augmentation part       11.5844502 magnetization 

 Broyden mixing:
  rms(total) = 0.13142E-03    rms(broyden)= 0.13127E-03
  rms(prec ) = 0.22285E-03
  weight for this iteration     100.00

 eigenvalues of (default mixing * dielectric matrix)
  average eigenvalue GAMMA=   1.0955
  2.0382  1.8019  0.4486  0.9286  1.1701  1.1701  0.1110

 Free energy of the ion-electron system (eV)
  ---------------------------------------------------
  alpha Z        PSCENC =       167.28213847
  Ewald energy   TEWEN  =     -3351.06778558
  -Hartree energ DENC   =     -2400.81313331
  -exchange      EXHF   =         0.00000000
  -V(xc)+E(xc)   XCENC  =       180.92789871
  PAW double counting   =      5402.05326752    -5725.88702488
  entropy T*S    EENTRO =        -0.00000000
  eigenvalues    EBANDS =      -593.40772734
  atomic energy  EATOM  =      6293.50105541
  Solvation  Ediel_sol  =         0.00000000
  ---------------------------------------------------
  free energy    TOTEN  =       -27.41131100 eV

  energy without entropy =      -27.41131100  energy(sigma->0) =      -27.41131100


--------------------------------------------------------------------------------------------------------




--------------------------------------- Iteration      1(   9)  ---------------------------------------


    POTLOK:  cpu time    0.0439: real time    0.0441
    SETDIJ:  cpu time    0.0112: real time    0.0113
    EDDIAG:  cpu time    0.9113: real time    0.9167
  RMM-DIIS:  cpu time    4.7563: real time    4.7870
    ORTHCH:  cpu time    0.0532: real time    0.0534
       DOS:  cpu time    0.0020: real time    0.0020
    CHARGE:  cpu time    0.2395: real time    0.2404
    MIXING:  cpu time    0.0023: real time    0.0023
    --------------------------------------------
      LOOP:  cpu time    6.0195: real time    6.0570

 eigenvalue-minimisations  : 10259
 total energy-change (2. order) :-0.8503230E-07  (-0.1036356E-06)
 number of electron      34.0000002 magnetization 
 augmentation part       11.5843437 magnetization 

 Broyden mixing:
  rms(total) = 0.56418E-04    rms(broyden)= 0.56304E-04
  rms(prec ) = 0.79694E-04
  weight for this iteration     100.00

 eigenvalues of (default mixing * dielectric matrix)
  average eigenvalue GAMMA=   1.3111
  2.6687  0.4486  1.5828  0.8976  1.3213  1.3213  1.1242  1.1242

 Free energy of the ion-electron system (eV)
  ---------------------------------------------------
  alpha Z        PSCENC =       167.28213847
  Ewald energy   TEWEN  =     -3351.06778558
  -Hartree energ DENC   =     -2400.82150904
  -exchange      EXHF   =         0.00000000
  -V(xc)+E(xc)   XCENC  =       180.92816477
  PAW double counting   =      5402.05729768    -5725.89034458
  entropy T*S    EENTRO =        -0.00000000
  eigenvalues    EBANDS =      -593.40032821
  atomic energy  EATOM  =      6293.50105541
  Solvation  Ediel_sol  =         0.00000000
  ---------------------------------------------------
  free energy    TOTEN  =       -27.41131108 eV

  energy without entropy =      -27.41131108  energy(sigma->0) =      -27.41131108


--------------------------------------------------------------------------------------------------------




--------------------------------------- Iteration      1(  10)  ---------------------------------------


    POTLOK:  cpu time    0.0448: real time    0.0451
    SETDIJ:  cpu time    0.0112: real time    0.0113
    EDDIAG:  cpu time    0.9346: real time    0.9400
  RMM-DIIS:  cpu time    4.4047: real time    4.4336
    ORTHCH:  cpu time    0.0529: real time    0.0532
       DOS:  cpu time    0.0019: real time    0.0019
    --------------------------------------------
      LOOP:  cpu time    5.4501: real time    5.4851

 eigenvalue-minimisations  :  9472
 total energy-change (2. order) :-0.8146344E-07  (-0.4100186E-07)
 number of electron      34.0000002 magnetization 
 augmentation part       11.5843437 magnetization 

 Free energy of the ion-electron system (eV)
  ---------------------------------------------------
  alpha Z        PSCENC =       167.28213847
  Ewald energy   TEWEN  =     -3351.06778558
  -Hartree energ DENC   =     -2400.81918432
  -exchange      EXHF   =         0.00000000
  -V(xc)+E(xc)   XCENC  =       180.92806367
  PAW double counting   =      5402.03852881    -5725.87099306
  entropy T*S    EENTRO =        -0.00000000
  eigenvalues    EBANDS =      -593.40313457
  atomic energy  EATOM  =      6293.50105541
  Solvation  Ediel_sol  =         0.00000000
  ---------------------------------------------------
  free energy    TOTEN  =       -27.41131117 eV

  energy without entropy =      -27.41131117  energy(sigma->0) =      -27.41131117


--------------------------------------------------------------------------------------------------------




 average (electrostatic) potential at core
  the test charge radii are     0.8846  1.0406  0.7215
  (the norm of the test charge is              1.0000)
       1 -76.0600       2 -50.7235       3 -69.6804       4 -69.6804
 
 
 
 E-fermi :   6.8552     XC(G=0): -11.9989     alpha+bet :-13.2687


 k-point     1 :       0.0000    0.0000    0.0000
  band No.  band energies     occupation 
      1    -105.4668      2.00000
      2     -63.1619      2.00000
      3     -62.9508      2.00000
      4     -62.9508      2.00000
      5     -15.2682      2.00000
      6     -13.0915      2.00000
      7      -2.5938      2.00000
      8       1.8892      2.00000
      9       1.9927      2.00000
     10       1.9927      2.00000
     11       2.0487      2.00000
     12       3.1931      2.00000
     13       3.1931      2.00000
     14       4.0295      2.00000
     15       4.0295      2.00000
     16       4.8151      2.00000
     17       4.8151      2.00000
     18       7.7733      0.00000
     19      11.9065      0.00000
     20      13.1285      0.00000
     21      17.5378      0.00000
     22      19.6654      0.00000
     23      19.6647      0.00000
     24      24.6428      0.00000
     25      25.8754      0.00000
     26      25.9399      0.00000
     27      26.9541      0.00000
     28      26.9546      0.00000
     29      27.2138      0.00000
     30      30.2118      0.00000
     31      31.0432      0.00000
     32      31.0450      0.00000
     33      31.8677      0.00000
     34      22.6195      0.00000
     35      22.9738      0.00000
     36      36.6167      0.00000

 k-point     2 :       0.1000    0.0000    0.0000
  band No.  band energies     occupation 
      1    -105.4666      2.00000
      2     -63.1613      2.00000
      3     -62.9527      2.00000
      4     -62.9513      2.00000
      5     -15.1449      2.00000
      6     -13.0424      2.00000
      7      -2.4664      2.00000
      8       1.1795      2.00000
      9       1.8172      2.00000
     10       1.8853      2.00000
     11       2.4514      2.00000
     12       2.9413      2.00000
[...]
     19      11.0535      0.00000
     20      13.5267      0.00000
     21      17.9037      0.00000
     22      18.8570      0.00000
     23      19.3184      0.00000
     24      16.1319      0.00000
     25      22.1525      0.00000
     26      23.1478      0.00000
     27      24.5810      0.00000
     28      25.7697      0.00000
     29      27.5169      0.00000
     30      28.4260      0.00000
     31      28.5330      0.00000
     32      29.8596      0.00000
     33      30.3842      0.00000
     34      30.9563      0.00000
     35      32.4549      0.00000
     36      47.8223      0.00000

 k-point   113 :      -0.4000    0.4000    0.4000
  band No.  band energies     occupation 
      1    -105.4660      2.00000
      2     -63.1603      2.00000
      3     -62.9578      2.00000
      4     -62.9523      2.00000
      5     -14.6943      2.00000
      6     -13.0942      2.00000
      7      -1.0577      2.00000
      8      -0.4493      2.00000
      9       1.2116      2.00000
     10       1.5764      2.00000
     11       1.8163      2.00000
     12       2.6213      2.00000
     13       2.8359      2.00000
     14       3.9532      2.00000
     15       4.2933      2.00000
     16       4.7474      2.00000
     17       4.9602      2.00000
     18       9.0795      0.00000
     19      12.2235      0.00000
     20      14.5976      0.00000
     21      17.0122      0.00000
     22      18.1335      0.00000
     23      18.5601      0.00000
     24      21.3220      0.00000
     25      23.3417      0.00000
     26      23.7886      0.00000
     27      25.7624      0.00000
     28      26.4648      0.00000
     29      28.7718      0.00000
     30      14.3587      0.00000
     31      30.5486      0.00000
     32      30.7260      0.00000
     33      32.1220      0.00000
     34      32.6987      0.00000
     35      33.3020      0.00000
     36      31.6563      0.00000

 k-point   114 :       0.5000    0.5000    0.4000
  band No.  band energies     occupation 
      1    -105.4665      2.00000
      2     -63.1606      2.00000
      3     -62.9524      2.00000
      4     -62.9510      2.00000
      5     -15.0410      2.00000
      6     -13.2318      2.00000
      7      -1.2469      2.00000
      8       0.0037      2.00000
      9       1.8562      2.00000
     10       2.1546      2.00000
     11       2.1793      2.00000
     12       2.5320      2.00000
     13       2.6360      2.00000
     14       3.9893      2.00000
     15       4.1021      2.00000
     16       4.9278      2.00000
     17       5.0344      2.00000
     18       9.3386      0.00000
     19      10.9700      0.00000
     20      13.5266      0.00000
     21      17.9034      0.00000
     22      18.8584      0.00000
     23      19.8483      0.00000
     24      18.0948      0.00000
     25      22.3559      0.00000
     26      23.2164      0.00000
     27      23.8416      0.00000
     28      24.9555      0.00000
     29      27.4466      0.00000
     30      28.2711      0.00000
     31      28.9235      0.00000
     32      30.0661      0.00000
     33      30.2322      0.00000
     34      31.2887      0.00000
     35      32.2248      0.00000
     36      32.3612      0.00000

 k-point   115 :      -0.4000    0.5000    0.4000
  band No.  band energies     occupation 
      1    -105.4661      2.00000
      2     -63.1604      2.00000
      3     -62.9560      2.00000
      4     -62.9520      2.00000
      5     -14.8048      2.00000
      6     -13.1376      2.00000
      7      -1.0766      2.00000
      8      -0.2769      2.00000
      9       1.3646      2.00000
     10       1.6029      2.00000
     11       2.1920      2.00000
     12       2.4046      2.00000
     13       2.7841      2.00000
     14       3.9143      2.00000
     15       4.2573      2.00000
     16       4.7999      2.00000
     17       4.9824      2.00000
     18       9.1953      0.00000
     19      11.8544      0.00000
     20      14.3435      0.00000
     21      17.2595      0.00000
     22      18.3272      0.00000
     23      18.9113      0.00000
     24      21.6790      0.00000
     25      22.6552      0.00000
     26      23.3999      0.00000
     27      26.5604      0.00000
     28      26.7989      0.00000
     29      28.7181      0.00000
     30      29.9543      0.00000
     31      30.7111      0.00000
     32      31.7492      0.00000
     33      32.3160      0.00000
     34      32.7389      0.00000
     35      31.2960      0.00000
     36      27.9077      0.00000

 k-point   116 :       0.5000    0.5000    0.5000
  band No.  band energies     occupation 
      1    -105.4667      2.00000
      2     -63.1609      2.00000
      3     -62.9502      2.00000
      4     -62.9502      2.00000
      5     -15.1623      2.00000
      6     -13.2886      2.00000
      7      -1.3037      2.00000
      8       0.0614      2.00000
      9       2.0812      2.00000
     10       2.3117      2.00000
     11       2.3117      2.00000
     12       2.6693      2.00000
     13       2.6693      2.00000
     14       4.0301      2.00000
     15       4.0301      2.00000
     16       5.0450      2.00000
     17       5.0450      2.00000
     18       9.4434      0.00000
     19      10.3884      0.00000
     20      13.0540      0.00000
     21      18.1101      0.00000
     22      19.1572      0.00000
     23      18.1788      0.00000
     24      20.9154      0.00000
     25      21.5897      0.00000
     26      13.8992      0.00000
     27      25.2917      0.00000
     28      25.2500      0.00000
     29      25.9441      0.00000
     30      26.2998      0.00000
     31      28.2737      0.00000
     32      28.2737      0.00000
     33      29.0460      0.00000
     34      29.0463      0.00000
     35      30.2121      0.00000
     36      31.5883      0.00000


--------------------------------------------------------------------------------------------------------


 soft charge-density along one line, spin component           1
         0         1         2         3         4         5         6         7         8         9
 total charge-density along one line
 
 pseudopotential strength for first ion, spin component:           1
-79.472  14.513 -15.550   0.000   0.000   0.000   0.000   0.000
 14.513   3.471  -6.472  -0.000  -0.000  -0.000  -0.000  -0.000
-15.550  -6.472  13.141   0.000   0.000   0.000   0.000   0.000
  0.000  -0.000   0.000 -68.502   0.000  -0.000 -59.778   0.000
  0.000  -0.000   0.000   0.000 -68.556   0.000   0.000 -59.824
  0.000  -0.000   0.000  -0.000   0.000 -68.502  -0.000   0.000
  0.000  -0.000   0.000 -59.778   0.000  -0.000 -52.229   0.000
  0.000  -0.000   0.000   0.000 -59.824   0.000   0.000 -52.268
  0.000  -0.000   0.000  -0.000   0.000 -59.778  -0.000   0.000
  0.000   0.000  -0.000  10.799   0.000  -0.000   7.081   0.000
  0.000   0.000  -0.000   0.000  10.705   0.000   0.000   6.998
  0.000   0.000  -0.000  -0.000   0.000  10.799  -0.000   0.000
 -0.000   0.000   0.000   0.000  -0.000   0.000   0.000  -0.000
  0.000  -0.000   0.000   0.000   0.000  -0.000   0.000   0.000
 -0.029   0.015   0.006  -0.000   0.000  -0.000  -0.000   0.000
  0.000  -0.000  -0.000  -0.000   0.000   0.000  -0.000   0.000
  0.000  -0.000   0.000  -0.000  -0.000   0.000  -0.000  -0.000
  0.000   0.000  -0.000  -0.000   0.000  -0.000  -0.000   0.000
 -0.000   0.000  -0.000  -0.000  -0.000   0.000  -0.000  -0.000
  0.063   0.006  -0.035   0.000  -0.000   0.000   0.000  -0.000
 -0.000   0.000   0.000   0.000  -0.000  -0.000   0.000  -0.000
 -0.000   0.000  -0.000   0.000   0.000  -0.000   0.000   0.000
 -0.000  -0.000   0.000   0.000  -0.000   0.000   0.000  -0.000
  0.000  -0.000   0.000   0.000   0.000  -0.000   0.000   0.000
 -0.114  -0.031   0.078  -0.000   0.000  -0.000  -0.000   0.000
  0.000   0.000  -0.000  -0.000   0.000   0.000  -0.000   0.000
  0.000  -0.000   0.000  -0.000  -0.000   0.000  -0.000  -0.000
  0.000  -0.000  -0.000   0.000   0.000  -0.000   0.000   0.000
 -0.000   0.000   0.000   0.000  -0.000   0.000   0.000  -0.000
  0.000  -0.000  -0.000   0.008   0.000   0.000   0.008   0.000
 -0.000   0.000   0.000  -0.000  -0.006  -0.000  -0.000  -0.004
  0.000  -0.000  -0.000   0.000   0.000   0.008   0.000   0.000
 -0.000   0.000   0.000   0.000   0.000   0.000   0.000   0.000
  0.000  -0.000  -0.000   0.000  -0.000   0.000   0.000  -0.000
 -0.000   0.000  -0.000  -0.000  -0.000   0.000  -0.000  -0.000
  0.000  -0.000   0.000  -0.000   0.000  -0.000  -0.000   0.000
 -0.000   0.000  -0.000  -0.030  -0.000  -0.000  -0.028  -0.000
  0.000  -0.000   0.000   0.000   0.041   0.000   0.000   0.034
 -0.000   0.000  -0.000  -0.000  -0.000  -0.030  -0.000  -0.000
  0.000  -0.000   0.000  -0.000  -0.000  -0.000  -0.000  -0.000
 -0.000   0.000  -0.000  -0.000   0.000  -0.000  -0.000   0.000
 total augmentation occupancy for first ion, spin component:           1
  2.002   0.011   0.007   0.000   0.000   0.000   0.000   0.000   0.000   0.000   0.000   0.000   0.000  -0.000  -0.001   0.000
  0.011   1.161   0.005   0.000   0.000   0.000   0.000   0.000   0.000   0.000   0.000   0.000   0.000  -0.000  -0.412   0.000
  0.007   0.005   0.000   0.000   0.000   0.000   0.000   0.000   0.000   0.000   0.000   0.000  -0.000   0.000   0.001  -0.000
  0.000   0.000   0.000   2.561   0.000   0.000  -0.659  -0.000  -0.000   0.029   0.000   0.000   0.000   0.000   0.000   0.000
  0.000   0.000   0.000   0.000   4.438   0.000  -0.000  -2.692  -0.000   0.000   0.081   0.000   0.000   0.000   0.000   0.000
  0.000   0.000   0.000   0.000   0.000   2.561  -0.000  -0.000  -0.659   0.000   0.000   0.029   0.000   0.000   0.000   0.000
  0.000   0.000   0.000  -0.659  -0.000  -0.000   0.778   0.000   0.000  -0.022  -0.000  -0.000   0.000   0.000   0.000   0.000
  0.000   0.000   0.000  -0.000  -2.692  -0.000   0.000   2.980   0.000  -0.000  -0.078  -0.000   0.000   0.000   0.000   0.000
  0.000   0.000   0.000  -0.000  -0.000  -0.659   0.000   0.000   0.778  -0.000  -0.000  -0.022   0.000   0.000   0.000   0.000
  0.000   0.000   0.000   0.029   0.000   0.000  -0.022  -0.000  -0.000   0.001   0.000   0.000   0.000   0.000   0.000   0.000
  0.000   0.000   0.000   0.000   0.081   0.000  -0.000  -0.078  -0.000   0.000   0.002   0.000   0.000   0.000   0.000   0.000
  0.000   0.000   0.000   0.000   0.000   0.029  -0.000  -0.000  -0.022   0.000   0.000   0.001   0.000   0.000   0.000   0.000
  0.000   0.000  -0.000   0.000   0.000   0.000   0.000   0.000   0.000   0.000   0.000   0.000   1.980   0.000  -0.000   0.001
 -0.000  -0.000   0.000   0.000   0.000   0.000   0.000   0.000   0.000   0.000   0.000   0.000   0.000   2.025   0.000   0.000
 -0.001  -0.412   0.001   0.000   0.000   0.000   0.000   0.000   0.000   0.000   0.000   0.000  -0.000   0.000   1.720   0.000
  0.000   0.000  -0.000   0.000   0.000   0.000   0.000   0.000   0.000   0.000   0.000   0.000   0.001   0.000   0.000   2.025
  0.000   0.000  -0.000   0.000   0.000   0.000   0.000   0.000   0.000   0.000   0.000   0.000   0.000   0.001  -0.000   0.000
  0.000  -0.000  -0.000   0.000   0.000   0.000   0.000   0.000   0.000   0.000   0.000   0.000  -0.008  -0.000  -0.000  -0.000
 -0.000   0.000   0.000   0.000   0.000   0.000   0.000   0.000   0.000   0.000   0.000   0.000  -0.000  -0.021   0.000  -0.000
 -0.000   0.121   0.001   0.000   0.000   0.000   0.000   0.000   0.000   0.000   0.000   0.000  -0.000   0.000   0.043  -0.000
  0.000  -0.000  -0.000   0.000   0.000   0.000   0.000   0.000   0.000   0.000   0.000   0.000  -0.000  -0.000  -0.000  -0.021
  0.000  -0.000  -0.000   0.000   0.000   0.000   0.000   0.000   0.000   0.000   0.000   0.000  -0.000  -0.000  -0.000  -0.000
  0.000  -0.000  -0.000   0.000   0.000   0.000   0.000   0.000   0.000   0.000   0.000   0.000   0.009   0.000  -0.000  -0.000
 -0.000   0.000   0.000   0.000   0.000   0.000   0.000   0.000   0.000   0.000   0.000   0.000   0.000   0.007   0.000   0.000
 -0.000   0.014   0.000   0.000   0.000   0.000   0.000   0.000   0.000   0.000   0.000   0.000  -0.000   0.000   0.015   0.000
  0.000  -0.000  -0.000   0.000   0.000   0.000   0.000   0.000   0.000   0.000   0.000   0.000  -0.000   0.000   0.000   0.007
  0.000  -0.000  -0.000   0.000   0.000   0.000   0.000   0.000   0.000   0.000   0.000   0.000   0.000  -0.000  -0.000   0.000
  0.000   0.000   0.000   0.000   0.000   0.000  -0.000  -0.000  -0.000   0.000   0.000   0.000   0.000   0.000   0.000   0.000
  0.000   0.000   0.000   0.000   0.000   0.001  -0.000  -0.000  -0.001   0.000   0.000   0.000   0.000   0.000   0.000   0.000
  0.000   0.000   0.000  -0.015  -0.000  -0.000   0.015   0.000   0.000  -0.000  -0.000  -0.000   0.000   0.000   0.000   0.000
  0.000   0.000   0.000  -0.000  -0.159  -0.000   0.000   0.169   0.000  -0.000  -0.004  -0.000   0.000   0.000   0.000   0.000
  0.000   0.000   0.000  -0.000   0.000  -0.015   0.000  -0.000   0.015  -0.000   0.000  -0.000   0.000   0.000   0.000   0.000
  0.000   0.000   0.000   0.001   0.000   0.000  -0.001  -0.000  -0.000   0.000   0.000   0.000   0.000   0.000   0.000   0.000
  0.000   0.000   0.000  -0.000   0.000   0.000   0.000   0.000  -0.000  -0.000  -0.000   0.000   0.000   0.000   0.000   0.000
  0.000   0.000   0.000   0.000   0.000   0.000  -0.000  -0.000  -0.000   0.000   0.000   0.000   0.000   0.000   0.000   0.000
  0.000   0.000   0.000   0.000   0.000   0.000  -0.000  -0.000  -0.000   0.000   0.000   0.000   0.000   0.000   0.000   0.000
  0.000   0.000   0.000  -0.002  -0.000  -0.000   0.001   0.000   0.000  -0.000  -0.000  -0.000   0.000   0.000   0.000   0.000
  0.000   0.000   0.000  -0.000  -0.011  -0.000   0.000   0.008   0.000  -0.000  -0.000  -0.000   0.000   0.000   0.000   0.000
  0.000   0.000   0.000  -0.000   0.000  -0.002   0.000  -0.000   0.001  -0.000   0.000  -0.000   0.000   0.000   0.000   0.000
  0.000   0.000   0.000   0.000   0.000   0.000  -0.000  -0.000  -0.000   0.000   0.000   0.000   0.000   0.000   0.000   0.000
  0.000   0.000   0.000   0.000   0.000   0.000   0.000   0.000  -0.000  -0.000   0.000   0.000   0.000   0.000   0.000   0.000


------------------------ aborting loop because EDIFF is reached ----------------------------------------


    CHARGE:  cpu time    0.2388: real time    0.2397
    FORLOC:  cpu time    0.0038: real time    0.0038
    FORNL :  cpu time    0.2100: real time    0.2108
    STRESS:  cpu time    0.6886: real time    0.6928
    FORCOR:  cpu time    0.0446: real time    0.0449
    FORHAR:  cpu time    0.0121: real time    0.0121
    MIXING:  cpu time    0.0022: real time    0.0022
    OFIELD:  cpu time    0.0000: real time    0.0000

  FORCE on cell =-STRESS in cart. coord.  units (eV):
  Direction    XX          YY          ZZ          XY          YZ          ZX
  --------------------------------------------------------------------------------------
  Alpha Z   167.28214   167.28214   167.28214
  Ewald   -1091.24516 -1091.24515 -1168.58029    -0.00000     0.00000    -0.00000
  Hartree   902.06197   902.06197   596.70484    -0.00000     0.00000     0.00000
  E(xc)    -218.97756  -218.97756  -218.43705    -0.00000     0.00000     0.00000
  Local    -384.60428  -384.60428    18.31300    -0.00000    -0.00000     0.00000
  n-local  -197.93135  -197.51617  -200.32096     0.30371     0.62617    -0.66429
  augment   206.91677   206.91677   200.76286     0.00000     0.00000    -0.00000
  Kinetic   617.35026   615.28885   604.29994    -4.41570    -0.88125    -0.13787
  Fock        0.00000     0.00000     0.00000     0.00000     0.00000     0.00000
  -------------------------------------------------------------------------------------
  Total       0.02969     0.02969     0.02449     0.00000     0.00000     0.00000
  in kB       1.20997     1.20997     0.99807     0.00000     0.00000     0.00000
  external pressure =        1.14 kB  Pullay stress =        0.00 kB


 VOLUME and BASIS-vectors are now :
 -----------------------------------------------------------------------------
  energy-cutoff  :      550.00
  volume of cell :       39.32
      direct lattice vectors                 reciprocal lattice vectors
     1.420054545  0.819868875  5.628279077     0.352099151  0.203284540  0.059224734
    -1.420054545  0.819868875  5.628279077    -0.352099151  0.203284540  0.059224734
     0.000000000 -1.639737740  5.628279077    -0.000000000 -0.406569080  0.059224735

  length of vectors
     5.862274751  5.862274751  5.862274749     0.410860056  0.410860056  0.410860057


 FORCES acting on ions
    electron-ion (+dipol)            ewald-force                    non-local-force                 convergence-correction
 -----------------------------------------------------------------------------------------------
   0.775E-14 0.822E-13 -.150E-12   0.841E-14 -.179E-13 -.114E-12   -.628E-22 0.564E-21 -.291E-20   0.113E-12 0.184E-12 0.232E-13
   -.448E-12 -.537E-12 -.559E-12   0.304E-14 -.372E-14 0.426E-13   0.920E-24 0.377E-24 0.437E-23   -.113E-15 -.386E-15 -.139E-13
   0.180E-10 -.139E-06 -.348E+03   -.456E-13 0.430E-07 0.344E+03   0.584E-16 0.260E-08 0.444E+01   0.205E-13 0.174E-12 0.243E-03
   -.140E-10 0.139E-06 0.348E+03   0.391E-13 -.430E-07 -.344E+03   -.683E-16 -.260E-08 -.444E+01   0.325E-14 -.124E-12 -.243E-03
 -----------------------------------------------------------------------------------------------
   0.358E-11 0.127E-10 -.216E-11   0.489E-14 -.210E-13 0.568E-13   -.990E-17 0.471E-16 0.178E-14   0.137E-12 0.233E-12 -.223E-13
 
 
 POSITION                                       TOTAL-FORCE (eV/Angst)
 -----------------------------------------------------------------------------------
      0.00000      0.00000      0.00000        -0.000000      0.000000     -0.000000
      0.00000      0.00000      8.44242        -0.000000      0.000000     -0.000000
      0.00000      0.00000      1.84997        -0.000000     -0.000000     -0.000139
      0.00000      0.00000     15.03487         0.000000      0.000000      0.000139
 -----------------------------------------------------------------------------------
    total drift:                                0.000000      0.000000     -0.000000


--------------------------------------------------------------------------------------------------------



  FREE ENERGIE OF THE ION-ELECTRON SYSTEM (eV)
  ---------------------------------------------------
  free  energy   TOTEN  =       -27.41131117 eV

  energy  without entropy=      -27.41131117  energy(sigma->0) =      -27.41131117
 


--------------------------------------------------------------------------------------------------------


    POTLOK:  cpu time    0.0549: real time    0.0552


--------------------------------------------------------------------------------------------------------


 writing wavefunctions
     LOOP+:  cpu time   63.1773: real time   63.5750
    4ORBIT:  cpu time    0.0000: real time    0.0000

 total amount of memory used by VASP MPI-rank0    68708. kBytes
=======================================================================

   base      :      30000. kBytes
   nonl-proj :      22156. kBytes
   fftplans  :       3053. kBytes
   grid      :       5535. kBytes
   one-center:         80. kBytes
   wavefun   :       7884. kBytes
 
  
  
 General timing and accounting informations for this job:
 ========================================================
  
                  Total CPU time used (sec):       65.515
                            User time (sec):       64.570
                          System time (sec):        0.944
                         Elapsed time (sec):       66.186
  
                   Maximum memory used (kb):      171176.
                   Average memory used (kb):           0.
  
                          Minor page faults:       130058
                          Major page faults:            0
                 Voluntary context switches:          183
