<?xml version="1.0" encoding="ISO-8859-1"?>
<modeling>
 <generator>
  <i name="program" type="string">vasp </i>
  <i name="version" type="string">5.4.4.18Apr17-6-g9f103f2a35  </i>
  <i name="subversion" type="string">(build Dec 13 2019 19:06:22) complex            parallel </i>
  <i name="platform" type="string">LinuxIFC </i>
  <i name="date" type="string">2021 07 02 </i>
  <i name="time" type="string">07:35:00 </i>
 </generator>
 <incar>
  <i type="string" name="PREC">accurate</i>
  <i type="string" name="ALGO"> Fast</i>
  <i type="int" name="ISPIN">     1</i>
  <i type="int" name="IBRION">     1</i>
  <i name="EDIFF">      0.00000010</i>
  <i name="EDIFFG">     -0.00300000</i>
  <i type="int" name="NSW">    50</i>
  <i type="int" name="ISIF">     3</i>
  <i name="ENCUT">    550.00000000</i>
  <i type="int" name="NBANDS">    36</i>
  <i type="logical" name="LREAL"> F  </i>
  <i type="int" name="ISMEAR">     0</i>
  <v type="int" name="KPOINT_BSE">    -1     0     0     0</v>
  <i type="string" name="GGA"> PS</i>
 </incar>
 <structure name="primitive_cell" >
  <crystal>
   <varray name="basis" >
    <v>       1.43012364       0.82568227       5.65069925 </v>
    <v>      -1.43012364       0.82568227       5.65069925 </v>
    <v>       0.00000000      -1.65136453       5.65069925 </v>
   </varray>
   <i name="volume">     40.03501417 </i>
   <varray name="rec_basis" >
    <v>       0.34962012       0.20185327       0.05898975 </v>
    <v>      -0.34962012       0.20185327       0.05898975 </v>
    <v>      -0.00000000      -0.40370654       0.05898975 </v>
   </varray>
  </crystal>
  <varray name="positions" >
   <v>       0.00000000       0.00000000       0.00000000 </v>
   <v>       0.10979000       0.10979000       0.10979000 </v>
   <v>      -0.10979000      -0.10979000      -0.10979000 </v>
   <v>      -0.50000000      -0.50000000      -0.50000000 </v>
  </varray>
 </structure>
 <varray name="primitive_index" >
  <v type="int" >        1 </v>
  <v type="int" >        3 </v>
  <v type="int" >        4 </v>
  <v type="int" >        2 </v>
 </varray>
 <kpoints>
  <generation param="Gamma">
   <v type="int" name="divisions">      10       10       10 </v>
   <v name="usershift">      0.00000000       0.00000000       0.00000000 </v>
   <v name="genvec1">      0.10000000      -0.00000000      -0.00000000 </v>
   <v name="genvec2">     -0.00000000       0.10000000      -0.00000000 </v>
   <v name="genvec3">      0.00000000       0.00000000       0.10000000 </v>
   <v name="shift">      0.00000000       0.00000000       0.00000000 </v>
  </generation>
  <varray name="kpointlist" >
   <v>       0.00000000       0.00000000       0.00000000 </v>
   <v>       0.10000000      -0.00000000       0.00000000 </v>
   <v>       0.20000000       0.00000000      -0.00000000 </v>
   <v>       0.30000000       0.00000000       0.00000000 </v>
   <v>       0.40000000       0.00000000      -0.00000000 </v>
   <v>       0.50000000       0.00000000       0.00000000 </v>
   <v>       0.10000000       0.10000000       0.00000000 </v>
   <v>       0.20000000       0.10000000       0.00000000 </v>
   <v>       0.30000000       0.10000000       0.00000000 </v>
   <v>       0.40000000       0.10000000       0.00000000 </v>
   <v>       0.50000000       0.10000000       0.00000000 </v>
   <v>      -0.40000000       0.10000000      -0.00000000 </v>
   <v>      -0.30000000       0.10000000       0.00000000 </v>
   <v>      -0.20000000       0.10000000       0.00000000 </v>
   <v>      -0.10000000       0.10000000       0.00000000 </v>
   <v>       0.20000000       0.20000000       0.00000000 </v>
   <v>       0.30000000       0.20000000       0.00000000 </v>
   <v>       0.40000000       0.20000000       0.00000000 </v>
   <v>       0.50000000       0.20000000       0.00000000 </v>
   <v>      -0.40000000       0.20000000      -0.00000000 </v>
   <v>      -0.30000000       0.20000000      -0.00000000 </v>
   <v>      -0.20000000       0.20000000      -0.00000000 </v>
   <v>       0.30000000       0.30000000       0.00000000 </v>
   <v>       0.40000000       0.30000000       0.00000000 </v>
   <v>       0.50000000       0.30000000       0.00000000 </v>
   <v>      -0.40000000       0.30000000      -0.00000000 </v>
   <v>      -0.30000000       0.30000000      -0.00000000 </v>
   <v>       0.40000000       0.40000000       0.00000000 </v>
   <v>       0.50000000       0.40000000       0.00000000 </v>
   <v>      -0.40000000       0.40000000      -0.00000000 </v>
   <v>       0.50000000       0.50000000       0.00000000 </v>
   <v>       0.10000000       0.10000000       0.10000000 </v>
   <v>       0.20000000       0.10000000       0.10000000 </v>
   <v>       0.30000000       0.10000000       0.10000000 </v>
   <v>       0.40000000       0.10000000       0.10000000 </v>
   <v>       0.50000000       0.10000000       0.10000000 </v>
   <v>      -0.40000000       0.10000000       0.10000000 </v>
   <v>      -0.30000000       0.10000000       0.10000000 </v>
   <v>      -0.20000000       0.10000000       0.10000000 </v>
   <v>      -0.10000000       0.10000000       0.10000000 </v>
   <v>       0.20000000       0.20000000       0.10000000 </v>
   <v>       0.30000000       0.20000000       0.10000000 </v>
   <v>       0.40000000       0.20000000       0.10000000 </v>
   <v>       0.50000000       0.20000000       0.10000000 </v>
   <v>      -0.40000000       0.20000000       0.10000000 </v>
   <v>      -0.30000000       0.20000000       0.10000000 </v>
   <v>      -0.20000000       0.20000000       0.10000000 </v>
   <v>      -0.10000000       0.20000000       0.10000000 </v>
   <v>       0.30000000       0.30000000       0.10000000 </v>
   <v>       0.40000000       0.30000000       0.10000000 </v>
   <v>       0.50000000       0.30000000       0.10000000 </v>
   <v>      -0.40000000       0.30000000       0.10000000 </v>
   <v>      -0.30000000       0.30000000       0.10000000 </v>
   <v>      -0.20000000       0.30000000       0.10000000 </v>
   <v>      -0.10000000       0.30000000       0.10000000 </v>
   <v>       0.40000000       0.40000000       0.10000000 </v>
   <v>       0.50000000       0.40000000       0.10000000 </v>
   <v>      -0.40000000       0.40000000       0.10000000 </v>
   <v>      -0.30000000       0.40000000       0.10000000 </v>
   <v>      -0.20000000       0.40000000       0.10000000 </v>
   <v>      -0.10000000       0.40000000       0.10000000 </v>
   <v>       0.50000000       0.50000000       0.10000000 </v>
   <v>      -0.40000000       0.50000000       0.10000000 </v>
   <v>      -0.30000000       0.50000000       0.10000000 </v>
   <v>      -0.20000000       0.50000000       0.10000000 </v>
   <v>      -0.10000000       0.50000000       0.10000000 </v>
   <v>      -0.40000000      -0.40000000       0.10000000 </v>
   <v>      -0.30000000      -0.40000000       0.10000000 </v>
   <v>      -0.20000000      -0.40000000       0.10000000 </v>
   <v>      -0.30000000      -0.30000000       0.10000000 </v>
   <v>      -0.20000000      -0.30000000       0.10000000 </v>
   <v>      -0.20000000      -0.20000000       0.10000000 </v>
   <v>       0.20000000       0.20000000       0.20000000 </v>
   <v>       0.30000000       0.20000000       0.20000000 </v>
   <v>       0.40000000       0.20000000       0.20000000 </v>
   <v>       0.50000000       0.20000000       0.20000000 </v>
   <v>      -0.40000000       0.20000000       0.20000000 </v>
   <v>      -0.30000000       0.20000000       0.20000000 </v>
   <v>      -0.20000000       0.20000000       0.20000000 </v>
   <v>       0.30000000       0.30000000       0.20000000 </v>
   <v>       0.40000000       0.30000000       0.20000000 </v>
   <v>       0.50000000       0.30000000       0.20000000 </v>
   <v>      -0.40000000       0.30000000       0.20000000 </v>
   <v>      -0.30000000       0.30000000       0.20000000 </v>
   <v>      -0.20000000       0.30000000       0.20000000 </v>
   <v>       0.40000000       0.40000000       0.20000000 </v>
   <v>       0.50000000       0.40000000       0.20000000 </v>
   <v>      -0.40000000       0.40000000       0.20000000 </v>
   <v>      -0.30000000       0.40000000       0.20000000 </v>
   <v>      -0.20000000       0.40000000       0.20000000 </v>
   <v>       0.50000000       0.50000000       0.20000000 </v>
   <v>      -0.40000000       0.50000000       0.20000000 </v>
   <v>      -0.30000000       0.50000000       0.20000000 </v>
   <v>      -0.20000000       0.50000000       0.20000000 </v>
   <v>      -0.40000000      -0.40000000       0.20000000 </v>
   <v>      -0.30000000      -0.40000000       0.20000000 </v>
   <v>      -0.30000000      -0.30000000       0.20000000 </v>
   <v>       0.30000000       0.30000000       0.30000000 </v>
   <v>       0.40000000       0.30000000       0.30000000 </v>
   <v>       0.50000000       0.30000000       0.30000000 </v>
   <v>      -0.40000000       0.30000000       0.30000000 </v>
   <v>      -0.30000000       0.30000000       0.30000000 </v>
   <v>       0.40000000       0.40000000       0.30000000 </v>
   <v>       0.50000000       0.40000000       0.30000000 </v>
   <v>      -0.40000000       0.40000000       0.30000000 </v>
   <v>      -0.30000000       0.40000000       0.30000000 </v>
   <v>       0.50000000       0.50000000       0.30000000 </v>
   <v>      -0.40000000       0.50000000       0.30000000 </v>
   <v>      -0.30000000       0.50000000       0.30000000 </v>
   <v>      -0.40000000      -0.40000000       0.30000000 </v>
   <v>       0.40000000       0.40000000       0.40000000 </v>
   <v>       0.50000000       0.40000000       0.40000000 </v>
   <v>      -0.40000000       0.40000000       0.40000000 </v>
   <v>       0.50000000       0.50000000       0.40000000 </v>
   <v>      -0.40000000       0.50000000       0.40000000 </v>
   <v>       0.50000000       0.50000000       0.50000000 </v>
  </varray>
  <varray name="weights" >
   <v>       0.00100000 </v>
   <v>       0.00600000 </v>
   <v>       0.00600000 </v>
   <v>       0.00600000 </v>
   <v>       0.00600000 </v>
   <v>       0.00300000 </v>
   <v>       0.00600000 </v>
   <v>       0.01200000 </v>
   <v>       0.01200000 </v>
   <v>       0.01200000 </v>
   <v>       0.01200000 </v>
   <v>       0.01200000 </v>
   <v>       0.01200000 </v>
   <v>       0.01200000 </v>
   <v>       0.00600000 </v>
   <v>       0.00600000 </v>
   <v>       0.01200000 </v>
   <v>       0.01200000 </v>
   <v>       0.01200000 </v>
   <v>       0.01200000 </v>
   <v>       0.01200000 </v>
   <v>       0.00600000 </v>
   <v>       0.00600000 </v>
   <v>       0.01200000 </v>
   <v>       0.01200000 </v>
   <v>       0.01200000 </v>
   <v>       0.00600000 </v>
   <v>       0.00600000 </v>
   <v>       0.01200000 </v>
   <v>       0.00600000 </v>
   <v>       0.00300000 </v>
   <v>       0.00200000 </v>
   <v>       0.00600000 </v>
   <v>       0.00600000 </v>
   <v>       0.00600000 </v>
   <v>       0.00600000 </v>
   <v>       0.00600000 </v>
   <v>       0.00600000 </v>
   <v>       0.00600000 </v>
   <v>       0.00600000 </v>
   <v>       0.00600000 </v>
   <v>       0.01200000 </v>
   <v>       0.01200000 </v>
   <v>       0.01200000 </v>
   <v>       0.01200000 </v>
   <v>       0.01200000 </v>
   <v>       0.01200000 </v>
   <v>       0.01200000 </v>
   <v>       0.00600000 </v>
   <v>       0.01200000 </v>
   <v>       0.01200000 </v>
   <v>       0.01200000 </v>
   <v>       0.01200000 </v>
   <v>       0.01200000 </v>
   <v>       0.01200000 </v>
   <v>       0.00600000 </v>
   <v>       0.01200000 </v>
   <v>       0.01200000 </v>
   <v>       0.01200000 </v>
   <v>       0.01200000 </v>
   <v>       0.01200000 </v>
   <v>       0.00600000 </v>
   <v>       0.01200000 </v>
   <v>       0.01200000 </v>
   <v>       0.01200000 </v>
   <v>       0.00600000 </v>
   <v>       0.00600000 </v>
   <v>       0.01200000 </v>
   <v>       0.01200000 </v>
   <v>       0.00600000 </v>
   <v>       0.01200000 </v>
   <v>       0.00600000 </v>
   <v>       0.00200000 </v>
   <v>       0.00600000 </v>
   <v>       0.00600000 </v>
   <v>       0.00600000 </v>
   <v>       0.00600000 </v>
   <v>       0.00600000 </v>
   <v>       0.00600000 </v>
   <v>       0.00600000 </v>
   <v>       0.01200000 </v>
   <v>       0.01200000 </v>
   <v>       0.01200000 </v>
   <v>       0.01200000 </v>
   <v>       0.01200000 </v>
   <v>       0.00600000 </v>
   <v>       0.01200000 </v>
   <v>       0.01200000 </v>
   <v>       0.01200000 </v>
   <v>       0.01200000 </v>
   <v>       0.00600000 </v>
   <v>       0.01200000 </v>
   <v>       0.01200000 </v>
   <v>       0.00600000 </v>
   <v>       0.00600000 </v>
   <v>       0.01200000 </v>
   <v>       0.00600000 </v>
   <v>       0.00200000 </v>
   <v>       0.00600000 </v>
   <v>       0.00600000 </v>
   <v>       0.00600000 </v>
   <v>       0.00600000 </v>
   <v>       0.00600000 </v>
   <v>       0.01200000 </v>
   <v>       0.01200000 </v>
   <v>       0.01200000 </v>
   <v>       0.00600000 </v>
   <v>       0.01200000 </v>
   <v>       0.00600000 </v>
   <v>       0.00600000 </v>
   <v>       0.00200000 </v>
   <v>       0.00600000 </v>
   <v>       0.00600000 </v>
   <v>       0.00600000 </v>
   <v>       0.00600000 </v>
   <v>       0.00100000 </v>
  </varray>
 </kpoints>
 <parameters>
  <separator name="general" >
   <i type="string" name="SYSTEM">unknown system</i>
   <i type="logical" name="LCOMPAT"> F  </i>
  </separator>
  <separator name="electronic" >
   <i type="string" name="PREC">accura</i>
   <i name="ENMAX">    550.00000000</i>
   <i name="ENAUG">    982.89200000</i>
   <i name="EDIFF">      0.00000010</i>
   <i type="int" name="IALGO">    68</i>
   <i type="int" name="IWAVPR">    11</i>
   <i type="int" name="NBANDS">    36</i>
   <i name="NELECT">     34.00000000</i>
   <i type="int" name="TURBO">     0</i>
   <i type="int" name="IRESTART">     0</i>
   <i type="int" name="NREBOOT">     0</i>
   <i type="int" name="NMIN">     0</i>
   <i name="EREF">      0.00000000</i>
   <separator name="electronic smearing" >
    <i type="int" name="ISMEAR">     0</i>
    <i name="SIGMA">      0.20000000</i>
    <i name="KSPACING">      0.50000000</i>
    <i type="logical" name="KGAMMA"> T  </i>
   </separator>
   <separator name="electronic projectors" >
    <i type="logical" name="LREAL"> F  </i>
    <v name="ROPT">      0.00000000      0.00000000      0.00000000</v>
    <i type="int" name="LMAXPAW">  -100</i>
    <i type="int" name="LMAXMIX">     2</i>
    <i type="logical" name="NLSPLINE"> F  </i>
   </separator>
   <separator name="electronic startup" >
    <i type="int" name="ISTART">     0</i>
    <i type="int" name="ICHARG">     2</i>
    <i type="int" name="INIWAV">     1</i>
   </separator>
   <separator name="electronic spin" >
    <i type="int" name="ISPIN">     1</i>
    <i type="logical" name="LNONCOLLINEAR"> F  </i>
    <v name="MAGMOM">      1.00000000      1.00000000      1.00000000      1.00000000</v>
    <i name="NUPDOWN">     -1.00000000</i>
    <i type="logical" name="LSORBIT"> F  </i>
    <v name="SAXIS">      0.00000000      0.00000000      1.00000000</v>
    <i type="logical" name="LSPIRAL"> F  </i>
    <v name="QSPIRAL">      0.00000000      0.00000000      0.00000000</v>
    <i type="logical" name="LZEROZ"> F  </i>
   </separator>
   <separator name="electronic exchange-correlation" >
    <i type="logical" name="LASPH"> F  </i>
    <i type="logical" name="LMETAGGA"> F  </i>
   </separator>
   <separator name="electronic convergence" >
    <i type="int" name="NELM">    60</i>
    <i type="int" name="NELMDL">    -5</i>
    <i type="int" name="NELMIN">     2</i>
    <i name="ENINI">    550.00000000</i>
    <separator name="electronic convergence detail" >
     <i type="logical" name="LDIAG"> T  </i>
     <i type="logical" name="LSUBROT"> F  </i>
     <i name="WEIMIN">      0.00100000</i>
     <i name="EBREAK">      0.00000000</i>
     <i name="DEPER">      0.30000000</i>
     <i type="int" name="NRMM">     4</i>
     <i name="TIME">      0.40000000</i>
    </separator>
   </separator>
   <separator name="electronic mixer" >
    <i name="AMIX">      0.40000000</i>
    <i name="BMIX">      1.00000000</i>
    <i name="AMIN">      0.10000000</i>
    <i name="AMIX_MAG">      1.60000000</i>
    <i name="BMIX_MAG">      1.00000000</i>
    <separator name="electronic mixer details" >
     <i type="int" name="IMIX">     4</i>
     <i type="logical" name="MIXFIRST"> F  </i>
     <i type="int" name="MAXMIX">   -45</i>
     <i name="WC">    100.00000000</i>
     <i type="int" name="INIMIX">     1</i>
     <i type="int" name="MIXPRE">     1</i>
     <i type="int" name="MREMOVE">     5</i>
    </separator>
   </separator>
   <separator name="electronic dipolcorrection" >
    <i type="logical" name="LDIPOL"> F  </i>
    <i type="logical" name="LMONO"> F  </i>
    <i type="int" name="IDIPOL">     0</i>
    <i name="EPSILON">      1.00000000</i>
    <v name="DIPOL">   -100.00000000   -100.00000000   -100.00000000</v>
    <i name="EFIELD">      0.00000000</i>
   </separator>
  </separator>
  <separator name="grids" >
   <i type="int" name="NGX">    48</i>
   <i type="int" name="NGY">    48</i>
   <i type="int" name="NGZ">    48</i>
   <i type="int" name="NGXF">    96</i>
   <i type="int" name="NGYF">    96</i>
   <i type="int" name="NGZF">    96</i>
   <i type="logical" name="ADDGRID"> F  </i>
  </separator>
  <separator name="ionic" >
   <i type="int" name="NSW">    50</i>
   <i type="int" name="IBRION">     1</i>
   <i type="int" name="MDALGO">     0</i>
   <i type="int" name="ISIF">     3</i>
   <i name="PSTRESS">      0.00000000</i>
   <i name="EDIFFG">     -0.00300000</i>
   <i type="int" name="NFREE">     0</i>
   <i name="POTIM">      0.50000000</i>
   <i name="SMASS">     -3.00000000</i>
   <i name="SCALEE">      1.00000000</i>
  </separator>
  <separator name="ionic md" >
   <i name="TEBEG">      0.00010000</i>
   <i name="TEEND">      0.00010000</i>
   <i type="int" name="NBLOCK">     1</i>
   <i type="int" name="KBLOCK">    50</i>
   <i type="int" name="NPACO">   256</i>
   <i name="APACO">     16.00000000</i>
  </separator>
  <separator name="symmetry" >
   <i type="int" name="ISYM">     2</i>
   <i name="SYMPREC">      0.00001000</i>
  </separator>
  <separator name="dos" >
   <i type="int" name="LORBIT">     0</i>
   <v name="RWIGS">     -1.00000000     -1.00000000     -1.00000000</v>
   <i type="int" name="NEDOS">   301</i>
   <i name="EMIN">     10.00000000</i>
   <i name="EMAX">    -10.00000000</i>
   <i name="EFERMI">      0.00000000</i>
  </separator>
  <separator name="writing" >
   <i type="int" name="NWRITE">     2</i>
   <i type="logical" name="LWAVE"> T  </i>
   <i type="logical" name="LDOWNSAMPLE"> F  </i>
   <i type="logical" name="LCHARG"> T  </i>
   <i type="logical" name="LPARD"> F  </i>
   <i type="logical" name="LVTOT"> F  </i>
   <i type="logical" name="LVHAR"> F  </i>
   <i type="logical" name="LELF"> F  </i>
   <i type="logical" name="LOPTICS"> F  </i>
   <v name="STM">      0.00000000      0.00000000      0.00000000      0.00000000      0.00000000      0.00000000      0.00000000</v>
  </separator>
  <separator name="performance" >
   <i type="int" name="NPAR">     2</i>
   <i type="int" name="NSIM">     4</i>
   <i type="int" name="NBLK">    -1</i>
   <i type="logical" name="LPLANE"> T  </i>
   <i type="logical" name="LSCALAPACK"> T  </i>
   <i type="logical" name="LSCAAWARE"> F  </i>
   <i type="logical" name="LSCALU"> F  </i>
   <i type="logical" name="LASYNC"> F  </i>
   <i type="logical" name="LORBITALREAL"> F  </i>
  </separator>
  <separator name="miscellaneous" >
   <i type="int" name="IDIOT">     3</i>
   <i type="int" name="ISPECIAL">     0</i>
   <i type="logical" name="LMUSIC"> F  </i>
   <v name="POMASS">     63.54600000     26.98200000     16.00000000</v>
   <v name="DARWINR">      0.00000000      0.00000000      0.00000000</v>
   <v name="DARWINV">      1.00000000      1.00000000      1.00000000</v>
   <i type="logical" name="LCORR"> T  </i>
  </separator>
  <i type="logical" name="GGA_COMPAT"> T  </i>
  <i type="logical" name="LBERRY"> F  </i>
  <i type="int" name="ICORELEVEL">     0</i>
  <i type="logical" name="LDAU"> F  </i>
  <i type="int" name="I_CONSTRAINED_M">     0</i>
  <separator name="electronic exchange-correlation" >
   <i type="string" name="GGA">PS</i>
   <i type="int" name="VOSKOWN">     0</i>
   <i type="logical" name="LHFCALC"> F  </i>
   <i type="string" name="PRECFOCK"></i>
   <i type="logical" name="LSYMGRAD"> F  </i>
   <i type="logical" name="LHFONE"> F  </i>
   <i type="logical" name="LRHFCALC"> F  </i>
   <i type="logical" name="LTHOMAS"> F  </i>
   <i type="logical" name="LMODELHF"> F  </i>
   <i name="ENCUT4O">     -1.00000000</i>
   <i type="int" name="EXXOEP">     0</i>
   <i type="int" name="FOURORBIT">     0</i>
   <i name="AEXX">      0.00000000</i>
   <i name="HFALPHA">      0.00000000</i>
   <i name="MCALPHA">      0.00000000</i>
   <i name="ALDAX">      1.00000000</i>
   <i name="AGGAX">      1.00000000</i>
   <i name="ALDAC">      1.00000000</i>
   <i name="AGGAC">      1.00000000</i>
   <i type="int" name="NKREDX">     1</i>
   <i type="int" name="NKREDY">     1</i>
   <i type="int" name="NKREDZ">     1</i>
   <i type="logical" name="SHIFTRED"> F  </i>
   <i type="logical" name="ODDONLY"> F  </i>
   <i type="logical" name="EVENONLY"> F  </i>
   <i type="int" name="LMAXFOCK">     0</i>
   <i type="int" name="NMAXFOCKAE">     0</i>
   <i type="logical" name="LFOCKAEDFT"> F  </i>
   <i name="HFSCREEN">      0.00000000</i>
   <i name="HFSCREENC">      0.00000000</i>
   <i type="int" name="NBANDSGWLOW">     0</i>
  </separator>
  <separator name="vdW DFT" >
   <i type="logical" name="LUSE_VDW"> F  </i>
   <i name="Zab_VDW">     -0.84910000</i>
   <i name="PARAM1">      0.12340000</i>
   <i name="PARAM2">      1.00000000</i>
   <i name="PARAM3">      0.00000000</i>
  </separator>
  <separator name="model GW" >
   <i type="int" name="MODEL_GW">     0</i>
   <i name="MODEL_EPS0">      6.00525212</i>
   <i name="MODEL_ALPHA">      1.00000000</i>
  </separator>
  <separator name="linear response parameters" >
   <i type="logical" name="LEPSILON"> F  </i>
   <i type="logical" name="LRPA"> F  </i>
   <i type="logical" name="LNABLA"> F  </i>
   <i type="logical" name="LVEL"> F  </i>
   <i type="int" name="KINTER">     0</i>
   <i name="CSHIFT">      0.10000000</i>
   <i name="OMEGAMAX">     -1.00000000</i>
   <i name="DEG_THRESHOLD">      0.00200000</i>
   <i name="RTIME">     -0.10000000</i>
   <i name="WPLASMAI">      0.00000000</i>
   <v name="DFIELD">      0.00000000      0.00000000      0.00000000</v>
   <v name="WPLASMA">      0.00000000      0.00000000      0.00000000      0.00000000      0.00000000      0.00000000      0.00000000      0.00000000      0.00000000</v>
  </separator>
  <separator name="orbital magnetization" >
   <i type="logical" name="NUCIND"> F  </i>
   <v name="MAGPOS">      0.00000000      0.00000000      0.00000000</v>
   <i type="logical" name="LNICSALL"> T  </i>
   <i type="logical" name="ORBITALMAG"> F  </i>
   <i type="logical" name="LMAGBLOCH"> F  </i>
   <i type="logical" name="LCHIMAG"> F  </i>
   <i type="logical" name="LGAUGE"> T  </i>
   <i type="int" name="MAGATOM">     0</i>
   <v name="MAGDIPOL">      0.00000000      0.00000000      0.00000000</v>
   <v name="AVECCONST">      0.00000000      0.00000000      0.00000000</v>
  </separator>
  <separator name="response functions" >
   <i type="logical" name="LADDER"> F  </i>
   <i type="logical" name="LRPAFORCE"> F  </i>
   <i type="logical" name="LFXC"> F  </i>
   <i type="logical" name="LHARTREE"> T  </i>
   <i type="int" name="IBSE">     0</i>
   <v type="int" name="KPOINT">    -1     0     0     0</v>
   <i type="logical" name="LTCTE"> F  </i>
   <i type="logical" name="LTETE"> F  </i>
   <i type="logical" name="LTRIPLET"> F  </i>
   <i type="logical" name="LFXCEPS"> F  </i>
   <i type="logical" name="LFXHEG"> F  </i>
   <i type="int" name="NATURALO">     2</i>
   <i type="logical" name="L2ORDER"> F  </i>
   <i type="logical" name="LMP2LT"> F  </i>
   <i type="logical" name="LUSEW"> F  </i>
   <i name="ENCUTGW">     -2.00000000</i>
   <i name="ENCUTGWSOFT">     -2.00000000</i>
   <i name="ENCUTLF">     -1.00000000</i>
   <i type="int" name="LMAXMP2">    -1</i>
   <i name="SCISSOR">      0.00000000</i>
   <i type="int" name="NOMEGA">     0</i>
   <i type="int" name="NOMEGAR">     0</i>
   <i type="int" name="NBANDSGW">    -1</i>
   <i type="int" name="NBANDSO">    -1</i>
   <i type="int" name="NBANDSV">    -1</i>
   <i type="int" name="NELM">     1</i>
   <i type="int" name="NELMHF">     1</i>
   <i type="int" name="DIM">     3</i>
   <i type="int" name="ANTIRES">     0</i>
   <i name="OMEGAMAX">    -30.00000000</i>
   <i name="OMEGAMIN">    -30.00000000</i>
   <i name="OMEGATL">   -200.00000000</i>
   <i type="int" name="OMEGAGRID">   140</i>
   <i name="CSHIFT">     -0.10000000</i>
   <i type="logical" name="SELFENERGY"> F  </i>
   <i type="logical" name="LSPECTRAL"> F  </i>
   <i type="logical" name="LSPECTRALGW"> F  </i>
   <i type="logical" name="LSINGLES"> F  </i>
   <i type="logical" name="LFERMIGW"> F  </i>
   <i type="logical" name="ODDONLYGW"> F  </i>
   <i type="logical" name="EVENONLYGW"> F  </i>
   <i type="int" name="NKREDLFX">     1</i>
   <i type="int" name="NKREDLFY">     1</i>
   <i type="int" name="NKREDLFZ">     1</i>
   <i type="int" name="MAXMEM">  2800</i>
   <i type="int" name="TELESCOPE">     0</i>
   <i type="int" name="TAUPAR">     1</i>
   <i type="int" name="OMEGAPAR">    -1</i>
   <i name="LAMBDA">      1.00000000</i>
  </separator>
  <separator name="External order field" >
   <i name="OFIELD_KAPPA">      0.00000000</i>
   <v name="OFIELD_K">      0.00000000      0.00000000      0.00000000</v>
   <i name="OFIELD_Q6_NEAR">      0.00000000</i>
   <i name="OFIELD_Q6_FAR">      0.00000000</i>
   <i name="OFIELD_A">      0.00000000</i>
  </separator>
 </parameters>
 <atominfo>
  <atoms>       4 </atoms>
  <types>       3 </types>
  <array name="atoms" >
   <dimension dim="1">ion</dimension>
   <field type="string">element</field>
   <field type="int">atomtype</field>
   <set>
    <rc><c>Cu</c><c>   1</c></rc>
    <rc><c>Al</c><c>   2</c></rc>
    <rc><c>O </c><c>   3</c></rc>
    <rc><c>O </c><c>   3</c></rc>
   </set>
  </array>
  <array name="atomtypes" >
   <dimension dim="1">type</dimension>
   <field type="int">atomspertype</field>
   <field type="string">element</field>
   <field>mass</field>
   <field>valence</field>
   <field type="string">pseudopotential</field>
   <set>
    <rc><c>   1</c><c>Cu</c><c>     63.54600000</c><c>     19.00000000</c><c>  PAW_PBE Cu_sv_GW 05Dec2013            </c></rc>
    <rc><c>   1</c><c>Al</c><c>     26.98200000</c><c>      3.00000000</c><c>  PAW_PBE Al_GW 19Mar2012               </c></rc>
    <rc><c>   2</c><c>O </c><c>     16.00000000</c><c>      6.00000000</c><c>  PAW_PBE O_GW 28Sep2005                </c></rc>
   </set>
  </array>
 </atominfo>
 <structure name="initialpos" >
  <crystal>
   <varray name="basis" >
    <v>       1.43012364       0.82568227       5.65069925 </v>
    <v>      -1.43012364       0.82568227       5.65069925 </v>
    <v>       0.00000000      -1.65136453       5.65069925 </v>
   </varray>
   <i name="volume">     40.03501417 </i>
   <varray name="rec_basis" >
    <v>       0.34962012       0.20185327       0.05898975 </v>
    <v>      -0.34962012       0.20185327       0.05898975 </v>
    <v>      -0.00000000      -0.40370654       0.05898975 </v>
   </varray>
  </crystal>
  <varray name="positions" >
   <v>       0.00000000       0.00000000       0.00000000 </v>
   <v>       0.50000000       0.50000000       0.50000000 </v>
   <v>       0.10979000       0.10979000       0.10979000 </v>
   <v>       0.89021000       0.89021000       0.89021000 </v>
  </varray>
 </structure>
 <calculation>
  <scstep>
   <time name="dav">    5.07    5.10</time>
   <time name="total">    5.13    5.16</time>
   <energy>
    <i name="alphaZ">    164.28044973 </i>
    <i name="ewald">  -3333.64587894 </i>
    <i name="hartreedc">  -2435.67721130 </i>
    <i name="XCdc">    179.84347543 </i>
    <i name="pawpsdc">   5069.77841691 </i>
    <i name="pawaedc">  -5389.95852422 </i>
    <i name="eentropy">     -0.03061897 </i>
    <i name="bandstr">   -132.37353177 </i>
    <i name="atom">   6293.50105541 </i>
    <i name="e_fr_energy">    415.71763230 </i>
    <i name="e_wo_entrp">    415.74825127 </i>
    <i name="e_0_energy">    415.73294178 </i>
   </energy>
  </scstep>
  <scstep>
   <time name="dav">    4.86    4.89</time>
   <time name="total">    4.87    4.91</time>
   <energy>
    <i name="e_fr_energy">      2.54826632 </i>
    <i name="e_wo_entrp">      2.55481300 </i>
    <i name="e_0_energy">      2.55153966 </i>
   </energy>
  </scstep>
  <scstep>
   <time name="dav">    5.04    5.08</time>
   <time name="total">    5.04    5.07</time>
   <energy>
    <i name="e_fr_energy">    -30.35817133 </i>
    <i name="e_wo_entrp">    -30.34744723 </i>
    <i name="e_0_energy">    -30.35280928 </i>
   </energy>
  </scstep>
  <scstep>
   <time name="dav">    5.08    5.11</time>
   <time name="total">    5.09    5.12</time>
   <energy>
    <i name="e_fr_energy">    -31.54807725 </i>
    <i name="e_wo_entrp">    -31.53664585 </i>
    <i name="e_0_energy">    -31.54236155 </i>
   </energy>
  </scstep>
  <scstep>
   <time name="dav">    4.84    4.87</time>
   <time name="total">    5.09    5.12</time>
   <energy>
    <i name="e_fr_energy">    -31.59456317 </i>
    <i name="e_wo_entrp">    -31.58313115 </i>
    <i name="e_0_energy">    -31.58884716 </i>
   </energy>
  </scstep>
  <scstep>
   <time name="diag">    0.91    0.91</time>
   <time name="diis">    4.27    4.30</time>
   <time name="orth">    0.06    0.06</time>
   <time name="total">    5.53    5.57</time>
   <energy>
    <i name="e_fr_energy">    -29.59441699 </i>
    <i name="e_wo_entrp">    -29.59441699 </i>
    <i name="e_0_energy">    -29.59441699 </i>
   </energy>
  </scstep>
  <scstep>
   <time name="diag">    0.91    0.91</time>
   <time name="diis">    4.56    4.59</time>
   <time name="orth">    0.05    0.05</time>
   <time name="total">    5.82    5.85</time>
   <energy>
    <i name="e_fr_energy">    -27.36956165 </i>
    <i name="e_wo_entrp">    -27.36956143 </i>
    <i name="e_0_energy">    -27.36956154 </i>
   </energy>
  </scstep>
  <scstep>
   <time name="diag">    0.91    0.91</time>
   <time name="diis">    4.54    4.57</time>
   <time name="orth">    0.06    0.06</time>
   <time name="total">    5.80    5.83</time>
   <energy>
    <i name="e_fr_energy">    -27.39554333 </i>
    <i name="e_wo_entrp">    -27.39554333 </i>
    <i name="e_0_energy">    -27.39554333 </i>
   </energy>
  </scstep>
  <scstep>
   <time name="diag">    0.91    0.91</time>
   <time name="diis">    4.74    4.77</time>
   <time name="orth">    0.05    0.05</time>
   <time name="total">    6.00    6.04</time>
   <energy>
    <i name="e_fr_energy">    -27.40390668 </i>
    <i name="e_wo_entrp">    -27.40390668 </i>
    <i name="e_0_energy">    -27.40390668 </i>
   </energy>
  </scstep>
  <scstep>
   <time name="diag">    0.91    0.91</time>
   <time name="diis">    5.01    5.04</time>
   <time name="orth">    0.05    0.05</time>
   <time name="total">    6.26    6.30</time>
   <energy>
    <i name="e_fr_energy">    -27.40814669 </i>
    <i name="e_wo_entrp">    -27.40814669 </i>
    <i name="e_0_energy">    -27.40814669 </i>
   </energy>
  </scstep>
  <scstep>
   <time name="diag">    0.91    0.91</time>
   <time name="diis">    5.07    5.11</time>
   <time name="orth">    0.05    0.05</time>
   <time name="total">    6.33    6.38</time>
   <energy>
    <i name="e_fr_energy">    -27.40918506 </i>
    <i name="e_wo_entrp">    -27.40918506 </i>
    <i name="e_0_energy">    -27.40918506 </i>
   </energy>
  </scstep>
  <scstep>
   <time name="diag">    0.91    0.91</time>
   <time name="diis">    4.89    4.93</time>
   <time name="orth">    0.05    0.05</time>
   <time name="total">    6.15    6.19</time>
   <energy>
    <i name="e_fr_energy">    -27.40967674 </i>
    <i name="e_wo_entrp">    -27.40967674 </i>
    <i name="e_0_energy">    -27.40967674 </i>
   </energy>
  </scstep>
  <scstep>
   <time name="diag">    0.91    0.91</time>
   <time name="diis">    5.07    5.10</time>
   <time name="orth">    0.05    0.05</time>
   <time name="total">    6.33    6.37</time>
   <energy>
    <i name="e_fr_energy">    -27.40988577 </i>
    <i name="e_wo_entrp">    -27.40988577 </i>
    <i name="e_0_energy">    -27.40988577 </i>
   </energy>
  </scstep>
  <scstep>
   <time name="diag">    0.91    0.91</time>
   <time name="diis">    5.09    5.13</time>
   <time name="orth">    0.05    0.05</time>
   <time name="total">    6.36    6.40</time>
   <energy>
    <i name="e_fr_energy">    -27.40995373 </i>
    <i name="e_wo_entrp">    -27.40995373 </i>
    <i name="e_0_energy">    -27.40995373 </i>
   </energy>
  </scstep>
  <scstep>
   <time name="diag">    0.91    0.91</time>
   <time name="diis">    5.13    5.16</time>
   <time name="orth">    0.05    0.05</time>
   <time name="total">    6.39    6.43</time>
   <energy>
    <i name="e_fr_energy">    -27.40997643 </i>
    <i name="e_wo_entrp">    -27.40997643 </i>
    <i name="e_0_energy">    -27.40997643 </i>
   </energy>
  </scstep>
  <scstep>
   <time name="diag">    0.91    0.92</time>
   <time name="diis">    5.12    5.16</time>
   <time name="orth">    0.05    0.05</time>
   <time name="total">    6.38    6.42</time>
   <energy>
    <i name="e_fr_energy">    -27.40998604 </i>
    <i name="e_wo_entrp">    -27.40998604 </i>
    <i name="e_0_energy">    -27.40998604 </i>
   </energy>
  </scstep>
  <scstep>
   <time name="diag">    0.91    0.92</time>
   <time name="diis">    5.05    5.08</time>
   <time name="orth">    0.05    0.05</time>
   <time name="total">    6.31    6.35</time>
   <energy>
    <i name="e_fr_energy">    -27.40998875 </i>
    <i name="e_wo_entrp">    -27.40998875 </i>
    <i name="e_0_energy">    -27.40998875 </i>
   </energy>
  </scstep>
  <scstep>
   <time name="diag">    0.92    0.93</time>
   <time name="diis">    5.01    5.04</time>
   <time name="orth">    0.05    0.05</time>
   <time name="total">    6.28    6.32</time>
   <energy>
    <i name="e_fr_energy">    -27.40999037 </i>
    <i name="e_wo_entrp">    -27.40999037 </i>
    <i name="e_0_energy">    -27.40999037 </i>
   </energy>
  </scstep>
  <scstep>
   <time name="diag">    0.91    0.92</time>
   <time name="diis">    4.53    4.56</time>
   <time name="orth">    0.05    0.05</time>
   <time name="total">    5.79    5.83</time>
   <energy>
    <i name="e_fr_energy">    -27.40999118 </i>
    <i name="e_wo_entrp">    -27.40999118 </i>
    <i name="e_0_energy">    -27.40999118 </i>
   </energy>
  </scstep>
  <scstep>
   <time name="diag">    0.91    0.92</time>
   <time name="diis">    4.14    4.17</time>
   <time name="orth">    0.05    0.05</time>
   <time name="total">    5.40    5.44</time>
   <energy>
    <i name="e_fr_energy">    -27.40999165 </i>
    <i name="e_wo_entrp">    -27.40999165 </i>
    <i name="e_0_energy">    -27.40999165 </i>
   </energy>
  </scstep>
  <scstep>
   <time name="diag">    0.91    0.92</time>
   <time name="diis">    3.96    3.99</time>
   <time name="orth">    0.05    0.05</time>
   <time name="total">    5.22    5.26</time>
   <energy>
    <i name="e_fr_energy">    -27.40999175 </i>
    <i name="e_wo_entrp">    -27.40999175 </i>
    <i name="e_0_energy">    -27.40999175 </i>
   </energy>
  </scstep>
  <scstep>
   <time name="diag">    0.90    0.91</time>
   <time name="diis">    3.62    3.64</time>
   <time name="orth">    0.05    0.05</time>
   <time name="total">    4.63    4.66</time>
   <energy>
    <i name="alphaZ">    164.28044973 </i>
    <i name="ewald">  -3333.64587894 </i>
    <i name="hartreedc">  -2410.48344451 </i>
    <i name="XCdc">    180.76412010 </i>
    <i name="pawpsdc">   5385.69347194 </i>
    <i name="pawaedc">  -5709.42943118 </i>
    <i name="eentropy">     -0.00000000 </i>
    <i name="bandstr">   -598.09033437 </i>
    <i name="atom">   6293.50105541 </i>
    <i name="e_fr_energy">    -27.40999181 </i>
    <i name="e_wo_entrp">    -27.40999181 </i>
    <i name="e_0_energy">    -27.40999181 </i>
   </energy>
  </scstep>
  <structure>
   <crystal>
    <varray name="basis" >
     <v>       1.43012364       0.82568227       5.65069925 </v>
     <v>      -1.43012364       0.82568227       5.65069925 </v>
     <v>       0.00000000      -1.65136453       5.65069925 </v>
    </varray>
    <i name="volume">     40.03501417 </i>
    <varray name="rec_basis" >
     <v>       0.34962012       0.20185327       0.05898975 </v>
     <v>      -0.34962012       0.20185327       0.05898975 </v>
     <v>      -0.00000000      -0.40370654       0.05898975 </v>
    </varray>
   </crystal>
   <varray name="positions" >
    <v>       0.00000000       0.00000000       0.00000000 </v>
    <v>       0.50000000       0.50000000       0.50000000 </v>
    <v>       0.10979000       0.10979000       0.10979000 </v>
    <v>       0.89021000       0.89021000       0.89021000 </v>
   </varray>
  </structure>
  <varray name="forces" >
   <v>       0.00000000       0.00000000      -0.00000000 </v>
   <v>       0.00000000       0.00000000      -0.00000000 </v>
   <v>       0.00000000      -0.00000000      -0.04481549 </v>
   <v>      -0.00000000       0.00000000       0.04481549 </v>
  </varray>
  <varray name="stress" >
   <v>     -29.09898218       0.00000000       0.00000000 </v>
   <v>       0.00000000     -29.09898205      -0.00000002 </v>
   <v>       0.00000000      -0.00000002     -36.10417535 </v>
  </varray>
  <energy>
   <i name="e_fr_energy">    -27.40999181 </i>
   <i name="e_wo_entrp">    -27.40999181 </i>
   <i name="e_0_energy">     -0.00000000 </i>
  </energy>
  <time name="totalsc">  128.49  129.33</time>
 </calculation>
 <calculation>
  <scstep>
   <time name="dav">    3.77    3.80</time>
   <time name="total">    4.08    4.10</time>
   <energy>
    <i name="alphaZ">    169.03941067 </i>
    <i name="ewald">  -3364.14135594 </i>
    <i name="hartreedc">  -2434.61510222 </i>
    <i name="XCdc">    182.71019002 </i>
    <i name="pawpsdc">   5385.69458502 </i>
    <i name="pawaedc">  -5709.43043448 </i>
    <i name="eentropy">     -0.00002350 </i>
    <i name="bandstr">   -550.88870534 </i>
    <i name="atom">   6293.50105541 </i>
    <i name="e_fr_energy">    -28.13038035 </i>
    <i name="e_wo_entrp">    -28.13035685 </i>
    <i name="e_0_energy">    -28.13036860 </i>
   </energy>
  </scstep>
  <scstep>
   <time name="diag">    0.90    0.91</time>
   <time name="diis">    4.23    4.26</time>
   <time name="orth">    0.05    0.05</time>
   <time name="total">    5.49    5.52</time>
   <energy>
    <i name="e_fr_energy">    -27.90917435 </i>
    <i name="e_wo_entrp">    -27.90917435 </i>
    <i name="e_0_energy">    -27.90917435 </i>
   </energy>
  </scstep>
  <scstep>
   <time name="diag">    0.90    0.91</time>
   <time name="diis">    4.27    4.30</time>
   <time name="orth">    0.05    0.05</time>
   <time name="total">    5.52    5.56</time>
   <energy>
    <i name="e_fr_energy">    -27.40162931 </i>
    <i name="e_wo_entrp">    -27.40162931 </i>
    <i name="e_0_energy">    -27.40162931 </i>
   </energy>
  </scstep>
  <scstep>
   <time name="diag">    0.90    0.90</time>
   <time name="diis">    4.74    4.77</time>
   <time name="orth">    0.05    0.05</time>
   <time name="total">    5.99    6.03</time>
   <energy>
    <i name="e_fr_energy">    -27.41131037 </i>
    <i name="e_wo_entrp">    -27.41131037 </i>
    <i name="e_0_energy">    -27.41131037 </i>
   </energy>
  </scstep>
  <scstep>
   <time name="diag">    0.90    0.91</time>
   <time name="diis">    4.92    4.95</time>
   <time name="orth">    0.05    0.05</time>
   <time name="total">    6.17    6.21</time>
   <energy>
    <i name="e_fr_energy">    -27.41268405 </i>
    <i name="e_wo_entrp">    -27.41268405 </i>
    <i name="e_0_energy">    -27.41268405 </i>
   </energy>
  </scstep>
  <scstep>
   <time name="diag">    0.90    0.91</time>
   <time name="diis">    4.67    4.70</time>
   <time name="orth">    0.05    0.05</time>
   <time name="total">    5.92    5.96</time>
   <energy>
    <i name="e_fr_energy">    -27.41132422 </i>
    <i name="e_wo_entrp">    -27.41132422 </i>
    <i name="e_0_energy">    -27.41132422 </i>
   </energy>
  </scstep>
  <scstep>
   <time name="diag">    0.90    0.91</time>
   <time name="diis">    5.17    5.21</time>
   <time name="orth">    0.05    0.05</time>
   <time name="total">    6.43    6.47</time>
   <energy>
    <i name="e_fr_energy">    -27.41230109 </i>
    <i name="e_wo_entrp">    -27.41230109 </i>
    <i name="e_0_energy">    -27.41230109 </i>
   </energy>
  </scstep>
  <scstep>
   <time name="diag">    0.90    0.91</time>
   <time name="diis">    5.16    5.19</time>
   <time name="orth">    0.06    0.06</time>
   <time name="total">    6.41    6.46</time>
   <energy>
    <i name="e_fr_energy">    -27.41250883 </i>
    <i name="e_wo_entrp">    -27.41250883 </i>
    <i name="e_0_energy">    -27.41250883 </i>
   </energy>
  </scstep>
  <scstep>
   <time name="diag">    0.90    0.91</time>
   <time name="diis">    5.27    5.31</time>
   <time name="orth">    0.05    0.05</time>
   <time name="total">    6.53    6.57</time>
   <energy>
    <i name="e_fr_energy">    -27.41258204 </i>
    <i name="e_wo_entrp">    -27.41258204 </i>
    <i name="e_0_energy">    -27.41258204 </i>
   </energy>
  </scstep>
  <scstep>
   <time name="diag">    0.91    0.91</time>
   <time name="diis">    5.22    5.26</time>
   <time name="orth">    0.05    0.05</time>
   <time name="total">    6.48    6.53</time>
   <energy>
    <i name="e_fr_energy">    -27.41261171 </i>
    <i name="e_wo_entrp">    -27.41261171 </i>
    <i name="e_0_energy">    -27.41261171 </i>
   </energy>
  </scstep>
  <scstep>
   <time name="diag">    0.92    0.92</time>
   <time name="diis">    5.21    5.24</time>
   <time name="orth">    0.05    0.05</time>
   <time name="total">    6.48    6.52</time>
   <energy>
    <i name="e_fr_energy">    -27.41262519 </i>
    <i name="e_wo_entrp">    -27.41262519 </i>
    <i name="e_0_energy">    -27.41262519 </i>
   </energy>
  </scstep>
  <scstep>
   <time name="diag">    0.91    0.92</time>
   <time name="diis">    5.07    5.10</time>
   <time name="orth">    0.05    0.05</time>
   <time name="total">    6.33    6.38</time>
   <energy>
    <i name="e_fr_energy">    -27.41263177 </i>
    <i name="e_wo_entrp">    -27.41263177 </i>
    <i name="e_0_energy">    -27.41263177 </i>
   </energy>
  </scstep>
  <scstep>
   <time name="diag">    0.91    0.91</time>
   <time name="diis">    4.87    4.90</time>
   <time name="orth">    0.05    0.05</time>
   <time name="total">    6.13    6.17</time>
   <energy>
    <i name="e_fr_energy">    -27.41263333 </i>
    <i name="e_wo_entrp">    -27.41263333 </i>
    <i name="e_0_energy">    -27.41263333 </i>
   </energy>
  </scstep>
  <scstep>
   <time name="diag">    0.91    0.91</time>
   <time name="diis">    4.60    4.63</time>
   <time name="orth">    0.05    0.05</time>
   <time name="total">    5.86    5.90</time>
   <energy>
    <i name="e_fr_energy">    -27.41263497 </i>
    <i name="e_wo_entrp">    -27.41262496 </i>
    <i name="e_0_energy">    -27.41262997 </i>
   </energy>
  </scstep>
  <scstep>
   <time name="diag">    0.91    0.92</time>
   <time name="diis">    4.21    4.24</time>
   <time name="orth">    0.05    0.05</time>
   <time name="total">    5.48    5.51</time>
   <energy>
    <i name="e_fr_energy">    -27.41263483 </i>
    <i name="e_wo_entrp">    -27.41263483 </i>
    <i name="e_0_energy">    -27.41263483 </i>
   </energy>
  </scstep>
  <scstep>
   <time name="diag">    0.91    0.91</time>
   <time name="diis">    3.89    3.91</time>
   <time name="orth">    0.05    0.05</time>
   <time name="total">    5.15    5.18</time>
   <energy>
    <i name="e_fr_energy">    -27.41263508 </i>
    <i name="e_wo_entrp">    -27.41263508 </i>
    <i name="e_0_energy">    -27.41263508 </i>
   </energy>
  </scstep>
  <scstep>
   <time name="diag">    0.91    0.92</time>
   <time name="diis">    3.70    3.72</time>
   <time name="orth">    0.05    0.06</time>
   <time name="total">    4.97    5.00</time>
   <energy>
    <i name="e_fr_energy">    -27.41263524 </i>
    <i name="e_wo_entrp">    -27.41263524 </i>
    <i name="e_0_energy">    -27.41263524 </i>
   </energy>
  </scstep>
  <scstep>
   <time name="diag">    0.91    0.92</time>
   <time name="diis">    3.52    3.55</time>
   <time name="orth">    0.05    0.05</time>
   <time name="total">    4.79    4.82</time>
   <energy>
    <i name="e_fr_energy">    -27.41263544 </i>
    <i name="e_wo_entrp">    -27.41263544 </i>
    <i name="e_0_energy">    -27.41263544 </i>
   </energy>
  </scstep>
  <scstep>
   <time name="diag">    0.91    0.92</time>
   <time name="diis">    3.45    3.47</time>
   <time name="orth">    0.05    0.05</time>
   <time name="total">    4.47    4.50</time>
   <energy>
    <i name="alphaZ">    169.03941067 </i>
    <i name="ewald">  -3364.14135594 </i>
    <i name="hartreedc">  -2392.41928516 </i>
    <i name="XCdc">    181.05181936 </i>
    <i name="pawpsdc">   5415.14341904 </i>
    <i name="pawaedc">  -5738.98402616 </i>
    <i name="eentropy">     -0.00000000 </i>
    <i name="bandstr">   -590.60367267 </i>
    <i name="atom">   6293.50105541 </i>
    <i name="e_fr_energy">    -27.41263544 </i>
    <i name="e_wo_entrp">    -27.41263544 </i>
    <i name="e_0_energy">    -27.41263544 </i>
   </energy>
  </scstep>
  <structure>
   <crystal>
    <varray name="basis" >
     <v>       1.41758207       0.81844139       5.58921552 </v>
     <v>      -1.41758207       0.81844139       5.58921552 </v>
     <v>       0.00000000      -1.63688277       5.58921552 </v>
    </varray>
    <i name="volume">     38.90790973 </i>
    <varray name="rec_basis" >
     <v>       0.35271327       0.20363910       0.05963866 </v>
     <v>      -0.35271327       0.20363910       0.05963866 </v>
     <v>      -0.00000000      -0.40727820       0.05963866 </v>
    </varray>
   </crystal>
   <varray name="positions" >
    <v>       0.00000000       0.00000000      -0.00000000 </v>
    <v>       0.50000000       0.50000000       0.50000000 </v>
    <v>       0.10966246       0.10966246       0.10966246 </v>
    <v>       0.89033754       0.89033754       0.89033754 </v>
   </varray>
  </structure>
  <varray name="forces" >
   <v>      -0.00000000      -0.00000000      -0.00000000 </v>
   <v>      -0.00000000      -0.00000000      -0.00000000 </v>
   <v>      -0.00000000      -0.00000000      -0.04262247 </v>
   <v>       0.00000000       0.00000000       0.04262247 </v>
  </varray>
  <varray name="stress" >
   <v>      15.37500085       0.00000000       0.00000000 </v>
   <v>       0.00000000      15.37500078       0.00000003 </v>
   <v>       0.00000000       0.00000003      46.20385450 </v>
  </varray>
  <energy>
   <i name="e_fr_energy">    -27.41263544 </i>
   <i name="e_wo_entrp">    -27.41263544 </i>
   <i name="e_0_energy">     -0.00000000 </i>
  </energy>
  <time name="totalsc">  110.30  111.02</time>
 </calculation>
 <calculation>
  <scstep>
   <time name="dav">    3.57    3.60</time>
   <time name="total">    3.88    3.90</time>
   <energy>
    <i name="alphaZ">    167.32345706 </i>
    <i name="ewald">  -3351.89843489 </i>
    <i name="hartreedc">  -2385.74664102 </i>
    <i name="XCdc">    180.35977675 </i>
    <i name="pawpsdc">   5415.14289380 </i>
    <i name="pawaedc">  -5738.98378854 </i>
    <i name="eentropy">     -0.00000000 </i>
    <i name="bandstr">   -607.17937578 </i>
    <i name="atom">   6293.50105541 </i>
    <i name="e_fr_energy">    -27.48105720 </i>
    <i name="e_wo_entrp">    -27.48105720 </i>
    <i name="e_0_energy">    -27.48105720 </i>
   </energy>
  </scstep>
  <scstep>
   <time name="diag">    0.91    0.92</time>
   <time name="diis">    4.42    4.45</time>
   <time name="orth">    0.05    0.05</time>
   <time name="total">    5.69    5.72</time>
   <energy>
    <i name="e_fr_energy">    -27.43979298 </i>
    <i name="e_wo_entrp">    -27.43979298 </i>
    <i name="e_0_energy">    -27.43979298 </i>
   </energy>
  </scstep>
  <scstep>
   <time name="diag">    0.92    0.93</time>
   <time name="diis">    4.27    4.30</time>
   <time name="orth">    0.05    0.05</time>
   <time name="total">    5.54    5.58</time>
   <energy>
    <i name="e_fr_energy">    -27.41735310 </i>
    <i name="e_wo_entrp">    -27.41735310 </i>
    <i name="e_0_energy">    -27.41735310 </i>
   </energy>
  </scstep>
  <scstep>
   <time name="diag">    0.91    0.92</time>
   <time name="diis">    4.76    4.79</time>
   <time name="orth">    0.05    0.05</time>
   <time name="total">    6.02    6.06</time>
   <energy>
    <i name="e_fr_energy">    -27.41596471 </i>
    <i name="e_wo_entrp">    -27.41596471 </i>
    <i name="e_0_energy">    -27.41596471 </i>
   </energy>
  </scstep>
  <scstep>
   <time name="diag">    0.91    0.92</time>
   <time name="diis">    5.00    5.03</time>
   <time name="orth">    0.05    0.05</time>
   <time name="total">    6.26    6.30</time>
   <energy>
    <i name="e_fr_energy">    -27.41680156 </i>
    <i name="e_wo_entrp">    -27.41680156 </i>
    <i name="e_0_energy">    -27.41680156 </i>
   </energy>
  </scstep>
  <scstep>
   <time name="diag">    0.91    0.92</time>
   <time name="diis">    4.74    4.78</time>
   <time name="orth">    0.05    0.05</time>
   <time name="total">    6.01    6.05</time>
   <energy>
    <i name="e_fr_energy">    -27.41690689 </i>
    <i name="e_wo_entrp">    -27.41690689 </i>
    <i name="e_0_energy">    -27.41690689 </i>
   </energy>
  </scstep>
  <scstep>
   <time name="diag">    0.91    0.92</time>
   <time name="diis">    5.08    5.12</time>
   <time name="orth">    0.05    0.05</time>
   <time name="total">    6.34    6.39</time>
   <energy>
    <i name="e_fr_energy">    -27.41703820 </i>
    <i name="e_wo_entrp">    -27.41703820 </i>
    <i name="e_0_energy">    -27.41703820 </i>
   </energy>
  </scstep>
  <scstep>
   <time name="diag">    0.91    0.91</time>
   <time name="diis">    5.20    5.24</time>
   <time name="orth">    0.05    0.05</time>
   <time name="total">    6.46    6.51</time>
   <energy>
    <i name="e_fr_energy">    -27.41708918 </i>
    <i name="e_wo_entrp">    -27.41708918 </i>
    <i name="e_0_energy">    -27.41708918 </i>
   </energy>
  </scstep>
  <scstep>
   <time name="diag">    0.91    0.91</time>
   <time name="diis">    5.05    5.08</time>
   <time name="orth">    0.05    0.05</time>
   <time name="total">    6.31    6.35</time>
   <energy>
    <i name="e_fr_energy">    -27.41711643 </i>
    <i name="e_wo_entrp">    -27.41711643 </i>
    <i name="e_0_energy">    -27.41711643 </i>
   </energy>
  </scstep>
  <scstep>
   <time name="diag">    0.91    0.91</time>
   <time name="diis">    5.04    5.08</time>
   <time name="orth">    0.06    0.06</time>
   <time name="total">    6.32    6.36</time>
   <energy>
    <i name="e_fr_energy">    -27.41712235 </i>
    <i name="e_wo_entrp">    -27.41712235 </i>
    <i name="e_0_energy">    -27.41712235 </i>
   </energy>
  </scstep>
  <scstep>
   <time name="diag">    0.92    0.93</time>
   <time name="diis">    4.87    4.90</time>
   <time name="orth">    0.05    0.05</time>
   <time name="total">    6.15    6.19</time>
   <energy>
    <i name="e_fr_energy">    -27.41712728 </i>
    <i name="e_wo_entrp">    -27.41712728 </i>
    <i name="e_0_energy">    -27.41712728 </i>
   </energy>
  </scstep>
  <scstep>
   <time name="diag">    0.91    0.92</time>
   <time name="diis">    4.65    4.68</time>
   <time name="orth">    0.05    0.05</time>
   <time name="total">    5.92    5.96</time>
   <energy>
    <i name="e_fr_energy">    -27.41714984 </i>
    <i name="e_wo_entrp">    -27.41696030 </i>
    <i name="e_0_energy">    -27.41705507 </i>
   </energy>
  </scstep>
  <scstep>
   <time name="diag">    0.92    0.92</time>
   <time name="diis">    4.17    4.20</time>
   <time name="orth">    0.05    0.05</time>
   <time name="total">    5.44    5.48</time>
   <energy>
    <i name="e_fr_energy">    -27.41712986 </i>
    <i name="e_wo_entrp">    -27.41712986 </i>
    <i name="e_0_energy">    -27.41712986 </i>
   </energy>
  </scstep>
  <scstep>
   <time name="diag">    0.93    0.93</time>
   <time name="diis">    3.94    3.96</time>
   <time name="orth">    0.05    0.05</time>
   <time name="total">    5.21    5.25</time>
   <energy>
    <i name="e_fr_energy">    -27.41713015 </i>
    <i name="e_wo_entrp">    -27.41713015 </i>
    <i name="e_0_energy">    -27.41713015 </i>
   </energy>
  </scstep>
  <scstep>
   <time name="diag">    0.93    0.93</time>
   <time name="diis">    3.66    3.68</time>
   <time name="orth">    0.05    0.05</time>
   <time name="total">    4.94    4.97</time>
   <energy>
    <i name="e_fr_energy">    -27.41713038 </i>
    <i name="e_wo_entrp">    -27.41713038 </i>
    <i name="e_0_energy">    -27.41713038 </i>
   </energy>
  </scstep>
  <scstep>
   <time name="diag">    0.92    0.92</time>
   <time name="diis">    3.56    3.58</time>
   <time name="orth">    0.05    0.05</time>
   <time name="total">    4.59    4.61</time>
   <energy>
    <i name="alphaZ">    167.32345706 </i>
    <i name="ewald">  -3351.89843489 </i>
    <i name="hartreedc">  -2400.15409167 </i>
    <i name="XCdc">    180.93685003 </i>
    <i name="pawpsdc">   5402.33541257 </i>
    <i name="pawaedc">  -5726.12781554 </i>
    <i name="eentropy">     -0.00000000 </i>
    <i name="bandstr">   -593.33356331 </i>
    <i name="atom">   6293.50105541 </i>
    <i name="e_fr_energy">    -27.41713034 </i>
    <i name="e_wo_entrp">    -27.41713034 </i>
    <i name="e_0_energy">    -27.41713034 </i>
   </energy>
  </scstep>
  <structure>
   <crystal>
    <varray name="basis" >
     <v>       1.42047834       0.82011355       5.62353220 </v>
     <v>      -1.42047834       0.82011355       5.62353220 </v>
     <v>       0.00000000      -1.64022710       5.62353220 </v>
    </varray>
    <i name="volume">     39.30692234 </i>
    <varray name="rec_basis" >
     <v>       0.35199410       0.20322389       0.05927473 </v>
     <v>      -0.35199410       0.20322389       0.05927473 </v>
     <v>      -0.00000000      -0.40644778       0.05927473 </v>
    </varray>
   </crystal>
   <varray name="positions" >
    <v>      -0.00000000      -0.00000000      -0.00000000 </v>
    <v>       0.50000000       0.50000000       0.50000000 </v>
    <v>       0.10960682       0.10960682       0.10960682 </v>
    <v>       0.89039318       0.89039318       0.89039318 </v>
   </varray>
  </structure>
  <varray name="forces" >
   <v>      -0.00000000       0.00000000      -0.00000000 </v>
   <v>      -0.00000000       0.00000000       0.00000000 </v>
   <v>       0.00000000      -0.00000000      -0.01464210 </v>
   <v>       0.00000000       0.00000000       0.01464210 </v>
  </varray>
  <varray name="stress" >
   <v>      -1.57534011       0.00000000       0.00000000 </v>
   <v>       0.00000000      -1.57534010       0.00000000 </v>
   <v>       0.00000000       0.00000000       2.42180762 </v>
  </varray>
  <energy>
   <i name="e_fr_energy">    -27.41713034 </i>
   <i name="e_wo_entrp">    -27.41713034 </i>
   <i name="e_0_energy">     -0.00000000 </i>
  </energy>
  <time name="totalsc">   92.55   93.14</time>
 </calculation>
 <calculation>
  <scstep>
   <time name="dav">    3.86    3.89</time>
   <time name="total">    4.17    4.19</time>
   <energy>
    <i name="alphaZ">    167.47337553 </i>
    <i name="ewald">  -3352.38011533 </i>
    <i name="hartreedc">  -2401.55203429 </i>
    <i name="XCdc">    180.99781846 </i>
    <i name="pawpsdc">   5402.33883435 </i>
    <i name="pawaedc">  -5726.12485123 </i>
    <i name="eentropy">     -0.00000000 </i>
    <i name="bandstr">   -591.67192035 </i>
    <i name="atom">   6293.50105541 </i>
    <i name="e_fr_energy">    -27.41783745 </i>
    <i name="e_wo_entrp">    -27.41783745 </i>
    <i name="e_0_energy">    -27.41783745 </i>
   </energy>
  </scstep>
  <scstep>
   <time name="diag">    0.92    0.92</time>
   <time name="diis">    4.41    4.44</time>
   <time name="orth">    0.05    0.05</time>
   <time name="total">    5.68    5.71</time>
   <energy>
    <i name="e_fr_energy">    -27.41744977 </i>
    <i name="e_wo_entrp">    -27.41744977 </i>
    <i name="e_0_energy">    -27.41744977 </i>
   </energy>
  </scstep>
  <scstep>
   <time name="diag">    0.92    0.92</time>
   <time name="diis">    4.49    4.52</time>
   <time name="orth">    0.05    0.05</time>
   <time name="total">    5.76    5.79</time>
   <energy>
    <i name="e_fr_energy">    -27.41710596 </i>
    <i name="e_wo_entrp">    -27.41710596 </i>
    <i name="e_0_energy">    -27.41710596 </i>
   </energy>
  </scstep>
  <scstep>
   <time name="diag">    0.92    0.92</time>
   <time name="diis">    4.86    4.89</time>
   <time name="orth">    0.05    0.05</time>
   <time name="total">    6.13    6.17</time>
   <energy>
    <i name="e_fr_energy">    -27.41713090 </i>
    <i name="e_wo_entrp">    -27.41713089 </i>
    <i name="e_0_energy">    -27.41713090 </i>
   </energy>
  </scstep>
  <scstep>
   <time name="diag">    0.91    0.92</time>
   <time name="diis">    5.05    5.08</time>
   <time name="orth">    0.05    0.05</time>
   <time name="total">    6.31    6.35</time>
   <energy>
    <i name="e_fr_energy">    -27.41713620 </i>
    <i name="e_wo_entrp">    -27.41713620 </i>
    <i name="e_0_energy">    -27.41713620 </i>
   </energy>
  </scstep>
  <scstep>
   <time name="diag">    0.91    0.92</time>
   <time name="diis">    4.81    4.84</time>
   <time name="orth">    0.05    0.05</time>
   <time name="total">    6.08    6.11</time>
   <energy>
    <i name="e_fr_energy">    -27.41714497 </i>
    <i name="e_wo_entrp">    -27.41714497 </i>
    <i name="e_0_energy">    -27.41714497 </i>
   </energy>
  </scstep>
  <scstep>
   <time name="diag">    0.92    0.92</time>
   <time name="diis">    4.96    4.99</time>
   <time name="orth">    0.05    0.05</time>
   <time name="total">    6.23    6.26</time>
   <energy>
    <i name="e_fr_energy">    -27.41714701 </i>
    <i name="e_wo_entrp">    -27.41714701 </i>
    <i name="e_0_energy">    -27.41714701 </i>
   </energy>
  </scstep>
  <scstep>
   <time name="diag">    0.91    0.92</time>
   <time name="diis">    4.60    4.63</time>
   <time name="orth">    0.05    0.05</time>
   <time name="total">    5.87    5.90</time>
   <energy>
    <i name="e_fr_energy">    -27.41714750 </i>
    <i name="e_wo_entrp">    -27.41714750 </i>
    <i name="e_0_energy">    -27.41714750 </i>
   </energy>
  </scstep>
  <scstep>
   <time name="diag">    0.91    0.92</time>
   <time name="diis">    4.21    4.23</time>
   <time name="orth">    0.05    0.05</time>
   <time name="total">    5.47    5.51</time>
   <energy>
    <i name="e_fr_energy">    -27.41714773 </i>
    <i name="e_wo_entrp">    -27.41714773 </i>
    <i name="e_0_energy">    -27.41714773 </i>
   </energy>
  </scstep>
  <scstep>
   <time name="diag">    0.92    0.92</time>
   <time name="diis">    3.82    3.85</time>
   <time name="orth">    0.06    0.06</time>
   <time name="total">    5.09    5.12</time>
   <energy>
    <i name="e_fr_energy">    -27.41714784 </i>
    <i name="e_wo_entrp">    -27.41714784 </i>
    <i name="e_0_energy">    -27.41714784 </i>
   </energy>
  </scstep>
  <scstep>
   <time name="diag">    0.92    0.92</time>
   <time name="diis">    3.64    3.66</time>
   <time name="orth">    0.05    0.05</time>
   <time name="total">    4.67    4.70</time>
   <energy>
    <i name="alphaZ">    167.47337553 </i>
    <i name="ewald">  -3352.38011533 </i>
    <i name="hartreedc">  -2400.05681877 </i>
    <i name="XCdc">    180.94233641 </i>
    <i name="pawpsdc">   5402.65822632 </i>
    <i name="pawaedc">  -5726.44491333 </i>
    <i name="eentropy">     -0.00000000 </i>
    <i name="bandstr">   -593.11029411 </i>
    <i name="atom">   6293.50105541 </i>
    <i name="e_fr_energy">    -27.41714786 </i>
    <i name="e_wo_entrp">    -27.41714786 </i>
    <i name="e_0_energy">    -27.41714786 </i>
   </energy>
  </scstep>
  <structure>
   <crystal>
    <varray name="basis" >
     <v>       1.41959019       0.81960078       5.62553067 </v>
     <v>      -1.41959019       0.81960078       5.62553067 </v>
     <v>       0.00000000      -1.63920155       5.62553067 </v>
    </varray>
    <i name="volume">     39.27173565 </i>
    <varray name="rec_basis" >
     <v>       0.35221433       0.20335104       0.05925367 </v>
     <v>      -0.35221433       0.20335104       0.05925367 </v>
     <v>       0.00000000      -0.40670207       0.05925367 </v>
    </varray>
   </crystal>
   <varray name="positions" >
    <v>      -0.00000000      -0.00000000      -0.00000000 </v>
    <v>       0.50000000       0.50000000       0.50000000 </v>
    <v>       0.10956632       0.10956632       0.10956632 </v>
    <v>       0.89043368       0.89043368       0.89043368 </v>
   </varray>
  </structure>
  <varray name="forces" >
   <v>      -0.00000000      -0.00000000      -0.00000000 </v>
   <v>      -0.00000000      -0.00000000       0.00000000 </v>
   <v>      -0.00000000      -0.00000000      -0.00107629 </v>
   <v>       0.00000000       0.00000000       0.00107629 </v>
  </varray>
  <varray name="stress" >
   <v>       1.53714024       0.00000000      -0.00000000 </v>
   <v>      -0.00000000       1.53714023       0.00000000 </v>
   <v>      -0.00000000       0.00000000       3.15937214 </v>
  </varray>
  <energy>
   <i name="e_fr_energy">    -27.41714786 </i>
   <i name="e_wo_entrp">    -27.41714786 </i>
   <i name="e_0_energy">     -0.00000000 </i>
  </energy>
  <time name="totalsc">   62.92   63.33</time>
 </calculation>
 <calculation>
  <scstep>
   <time name="dav">    3.67    3.69</time>
   <time name="total">    3.97    4.00</time>
   <energy>
    <i name="alphaZ">    167.33448534 </i>
    <i name="ewald">  -3351.43078814 </i>
    <i name="hartreedc">  -2399.44333751 </i>
    <i name="XCdc">    180.88599315 </i>
    <i name="pawpsdc">   5402.65687342 </i>
    <i name="pawaedc">  -5726.44316161 </i>
    <i name="eentropy">     -0.00000000 </i>
    <i name="bandstr">   -594.47883067 </i>
    <i name="atom">   6293.50105541 </i>
    <i name="e_fr_energy">    -27.41771060 </i>
    <i name="e_wo_entrp">    -27.41771060 </i>
    <i name="e_0_energy">    -27.41771060 </i>
   </energy>
  </scstep>
  <scstep>
   <time name="diag">    0.92    0.92</time>
   <time name="diis">    4.28    4.31</time>
   <time name="orth">    0.05    0.05</time>
   <time name="total">    5.55    5.58</time>
   <energy>
    <i name="e_fr_energy">    -27.41742003 </i>
    <i name="e_wo_entrp">    -27.41742003 </i>
    <i name="e_0_energy">    -27.41742003 </i>
   </energy>
  </scstep>
  <scstep>
   <time name="diag">    0.92    0.92</time>
   <time name="diis">    4.26    4.29</time>
   <time name="orth">    0.05    0.05</time>
   <time name="total">    5.53    5.56</time>
   <energy>
    <i name="e_fr_energy">    -27.41718997 </i>
    <i name="e_wo_entrp">    -27.41718997 </i>
    <i name="e_0_energy">    -27.41718997 </i>
   </energy>
  </scstep>
  <scstep>
   <time name="diag">    0.92    0.92</time>
   <time name="diis">    4.76    4.79</time>
   <time name="orth">    0.05    0.05</time>
   <time name="total">    6.03    6.06</time>
   <energy>
    <i name="e_fr_energy">    -27.41717788 </i>
    <i name="e_wo_entrp">    -27.41717788 </i>
    <i name="e_0_energy">    -27.41717788 </i>
   </energy>
  </scstep>
  <scstep>
   <time name="diag">    0.95    0.96</time>
   <time name="diis">    4.95    4.98</time>
   <time name="orth">    0.05    0.05</time>
   <time name="total">    6.26    6.30</time>
   <energy>
    <i name="e_fr_energy">    -27.41718218 </i>
    <i name="e_wo_entrp">    -27.41718218 </i>
    <i name="e_0_energy">    -27.41718218 </i>
   </energy>
  </scstep>
  <scstep>
   <time name="diag">    0.92    0.92</time>
   <time name="diis">    4.62    4.65</time>
   <time name="orth">    0.05    0.05</time>
   <time name="total">    5.89    5.93</time>
   <energy>
    <i name="e_fr_energy">    -27.41718202 </i>
    <i name="e_wo_entrp">    -27.41718202 </i>
    <i name="e_0_energy">    -27.41718202 </i>
   </energy>
  </scstep>
  <scstep>
   <time name="diag">    0.92    0.92</time>
   <time name="diis">    4.76    4.79</time>
   <time name="orth">    0.05    0.05</time>
   <time name="total">    6.03    6.07</time>
   <energy>
    <i name="e_fr_energy">    -27.41718279 </i>
    <i name="e_wo_entrp">    -27.41718279 </i>
    <i name="e_0_energy">    -27.41718279 </i>
   </energy>
  </scstep>
  <scstep>
   <time name="diag">    0.92    0.92</time>
   <time name="diis">    4.38    4.40</time>
   <time name="orth">    0.05    0.05</time>
   <time name="total">    5.65    5.68</time>
   <energy>
    <i name="e_fr_energy">    -27.41718306 </i>
    <i name="e_wo_entrp">    -27.41718306 </i>
    <i name="e_0_energy">    -27.41718306 </i>
   </energy>
  </scstep>
  <scstep>
   <time name="diag">    0.92    0.92</time>
   <time name="diis">    3.90    3.92</time>
   <time name="orth">    0.05    0.05</time>
   <time name="total">    5.17    5.20</time>
   <energy>
    <i name="e_fr_energy">    -27.41718317 </i>
    <i name="e_wo_entrp">    -27.41718317 </i>
    <i name="e_0_energy">    -27.41718317 </i>
   </energy>
  </scstep>
  <scstep>
   <time name="diag">    0.92    0.93</time>
   <time name="diis">    3.70    3.72</time>
   <time name="orth">    0.05    0.05</time>
   <time name="total">    4.73    4.76</time>
   <energy>
    <i name="alphaZ">    167.33448534 </i>
    <i name="ewald">  -3351.43078814 </i>
    <i name="hartreedc">  -2400.64205316 </i>
    <i name="XCdc">    180.93349275 </i>
    <i name="pawpsdc">   5401.72664868 </i>
    <i name="pawaedc">  -5725.50993218 </i>
    <i name="eentropy">     -0.00000000 </i>
    <i name="bandstr">   -593.33009191 </i>
    <i name="atom">   6293.50105541 </i>
    <i name="e_fr_energy">    -27.41718321 </i>
    <i name="e_wo_entrp">    -27.41718321 </i>
    <i name="e_0_energy">    -27.41718321 </i>
   </energy>
  </scstep>
  <structure>
   <crystal>
    <varray name="basis" >
     <v>       1.41989501       0.81977677       5.62778279 </v>
     <v>      -1.41989501       0.81977677       5.62778279 </v>
     <v>       0.00000000      -1.63955353       5.62778279 </v>
    </varray>
    <i name="volume">     39.30433179 </i>
    <varray name="rec_basis" >
     <v>       0.35213871       0.20330738       0.05922996 </v>
     <v>      -0.35213871       0.20330738       0.05922996 </v>
     <v>       0.00000000      -0.40661476       0.05922996 </v>
    </varray>
   </crystal>
   <varray name="positions" >
    <v>      -0.00000000      -0.00000000      -0.00000000 </v>
    <v>       0.50000000       0.50000000       0.50000000 </v>
    <v>       0.10956522       0.10956522       0.10956522 </v>
    <v>       0.89043478       0.89043478       0.89043478 </v>
   </varray>
  </structure>
  <varray name="forces" >
   <v>       0.00000000      -0.00000000       0.00000000 </v>
   <v>       0.00000000      -0.00000000      -0.00000000 </v>
   <v>      -0.00000000      -0.00000000      -0.00097794 </v>
   <v>       0.00000000       0.00000000       0.00097794 </v>
  </varray>
  <varray name="stress" >
   <v>       0.49489047       0.00000000       0.00000000 </v>
   <v>      -0.00000000       0.49489047       0.00000000 </v>
   <v>       0.00000000       0.00000000       0.52716294 </v>
  </varray>
  <energy>
   <i name="e_fr_energy">    -27.41718321 </i>
   <i name="e_wo_entrp">    -27.41718321 </i>
   <i name="e_0_energy">     -0.00000000 </i>
  </energy>
  <time name="totalsc">   56.27   56.61</time>
 </calculation>
 <calculation>
  <scstep>
   <time name="dav">    3.72    3.75</time>
   <time name="total">    4.03    4.05</time>
   <energy>
    <i name="alphaZ">    167.29154342 </i>
    <i name="ewald">  -3351.11471770 </i>
    <i name="hartreedc">  -2400.45660135 </i>
    <i name="XCdc">    180.91608277 </i>
    <i name="pawpsdc">   5401.72608994 </i>
    <i name="pawaedc">  -5725.50927818 </i>
    <i name="eentropy">     -0.00000000 </i>
    <i name="bandstr">   -593.77141877 </i>
    <i name="atom">   6293.50105541 </i>
    <i name="e_fr_energy">    -27.41724446 </i>
    <i name="e_wo_entrp">    -27.41724446 </i>
    <i name="e_0_energy">    -27.41724446 </i>
   </energy>
  </scstep>
  <scstep>
   <time name="diag">    0.92    0.92</time>
   <time name="diis">    4.30    4.32</time>
   <time name="orth">    0.05    0.05</time>
   <time name="total">    5.57    5.60</time>
   <energy>
    <i name="e_fr_energy">    -27.41721227 </i>
    <i name="e_wo_entrp">    -27.41721227 </i>
    <i name="e_0_energy">    -27.41721227 </i>
   </energy>
  </scstep>
  <scstep>
   <time name="diag">    0.92    0.92</time>
   <time name="diis">    4.28    4.31</time>
   <time name="orth">    0.05    0.05</time>
   <time name="total">    5.55    5.59</time>
   <energy>
    <i name="e_fr_energy">    -27.41718582 </i>
    <i name="e_wo_entrp">    -27.41718582 </i>
    <i name="e_0_energy">    -27.41718582 </i>
   </energy>
  </scstep>
  <scstep>
   <time name="diag">    0.92    0.92</time>
   <time name="diis">    4.69    4.72</time>
   <time name="orth">    0.05    0.05</time>
   <time name="total">    5.96    6.00</time>
   <energy>
    <i name="e_fr_energy">    -27.41718515 </i>
    <i name="e_wo_entrp">    -27.41718515 </i>
    <i name="e_0_energy">    -27.41718515 </i>
   </energy>
  </scstep>
  <scstep>
   <time name="diag">    0.92    0.92</time>
   <time name="diis">    4.74    4.77</time>
   <time name="orth">    0.05    0.05</time>
   <time name="total">    6.01    6.04</time>
   <energy>
    <i name="e_fr_energy">    -27.41718584 </i>
    <i name="e_wo_entrp">    -27.41718584 </i>
    <i name="e_0_energy">    -27.41718584 </i>
   </energy>
  </scstep>
  <scstep>
   <time name="diag">    0.92    0.92</time>
   <time name="diis">    4.15    4.18</time>
   <time name="orth">    0.05    0.05</time>
   <time name="total">    5.42    5.45</time>
   <energy>
    <i name="e_fr_energy">    -27.41718585 </i>
    <i name="e_wo_entrp">    -27.41718585 </i>
    <i name="e_0_energy">    -27.41718585 </i>
   </energy>
  </scstep>
  <scstep>
   <time name="diag">    0.92    0.92</time>
   <time name="diis">    4.12    4.15</time>
   <time name="orth">    0.05    0.05</time>
   <time name="total">    5.40    5.43</time>
   <energy>
    <i name="e_fr_energy">    -27.41718596 </i>
    <i name="e_wo_entrp">    -27.41718596 </i>
    <i name="e_0_energy">    -27.41718596 </i>
   </energy>
  </scstep>
  <scstep>
   <time name="diag">    0.91    0.92</time>
   <time name="diis">    3.65    3.68</time>
   <time name="orth">    0.05    0.05</time>
   <time name="total">    4.68    4.71</time>
   <energy>
    <i name="alphaZ">    167.29154342 </i>
    <i name="ewald">  -3351.11471770 </i>
    <i name="hartreedc">  -2400.85016023 </i>
    <i name="XCdc">    180.93107234 </i>
    <i name="pawpsdc">   5401.56079392 </i>
    <i name="pawaedc">  -5725.34444970 </i>
    <i name="eentropy">     -0.00000000 </i>
    <i name="bandstr">   -593.39232348 </i>
    <i name="atom">   6293.50105541 </i>
    <i name="e_fr_energy">    -27.41718601 </i>
    <i name="e_wo_entrp">    -27.41718601 </i>
    <i name="e_0_energy">    -27.41718601 </i>
   </energy>
  </scstep>
  <structure>
   <crystal>
    <varray name="basis" >
     <v>       1.42004640       0.81986417       5.62802722 </v>
     <v>      -1.42004640       0.81986417       5.62802722 </v>
     <v>       0.00000000      -1.63972833       5.62802722 </v>
    </varray>
    <i name="volume">     39.31442079 </i>
    <varray name="rec_basis" >
     <v>       0.35210117       0.20328571       0.05922738 </v>
     <v>      -0.35210117       0.20328571       0.05922738 </v>
     <v>      -0.00000000      -0.40657141       0.05922738 </v>
    </varray>
   </crystal>
   <varray name="positions" >
    <v>      -0.00000000      -0.00000000      -0.00000000 </v>
    <v>       0.50000000       0.50000000       0.50000000 </v>
    <v>       0.10956241       0.10956241       0.10956241 </v>
    <v>       0.89043759       0.89043759       0.89043759 </v>
   </varray>
  </structure>
  <varray name="forces" >
   <v>      -0.00000000       0.00000000       0.00000000 </v>
   <v>      -0.00000000       0.00000000       0.00000000 </v>
   <v>       0.00000000       0.00000000       0.00353100 </v>
   <v>      -0.00000000      -0.00000000      -0.00353100 </v>
  </varray>
  <varray name="stress" >
   <v>      -0.23797766       0.00000000       0.00000000 </v>
   <v>       0.00000000      -0.23797766       0.00000000 </v>
   <v>      -0.00000000       0.00000000       0.22933276 </v>
  </varray>
  <energy>
   <i name="e_fr_energy">    -27.41718601 </i>
   <i name="e_wo_entrp">    -27.41718601 </i>
   <i name="e_0_energy">     -0.00000000 </i>
  </energy>
  <time name="totalsc">   44.12   44.38</time>
 </calculation>
 <calculation>
  <scstep>
   <time name="dav">    4.09    4.12</time>
   <time name="total">    4.39    4.42</time>
   <energy>
    <i name="alphaZ">    167.29178389 </i>
    <i name="ewald">  -3351.15882205 </i>
    <i name="hartreedc">  -2400.81626775 </i>
    <i name="XCdc">    180.93113522 </i>
    <i name="pawpsdc">   5401.55818915 </i>
    <i name="pawaedc">  -5725.34121583 </i>
    <i name="eentropy">     -0.00000000 </i>
    <i name="bandstr">   -593.38304400 </i>
    <i name="atom">   6293.50105541 </i>
    <i name="e_fr_energy">    -27.41718596 </i>
    <i name="e_wo_entrp">    -27.41718596 </i>
    <i name="e_0_energy">    -27.41718596 </i>
   </energy>
  </scstep>
  <scstep>
   <time name="diag">    0.92    0.92</time>
   <time name="diis">    4.23    4.26</time>
   <time name="orth">    0.05    0.05</time>
   <time name="total">    5.50    5.53</time>
   <energy>
    <i name="e_fr_energy">    -27.41718604 </i>
    <i name="e_wo_entrp">    -27.41718604 </i>
    <i name="e_0_energy">    -27.41718604 </i>
   </energy>
  </scstep>
  <scstep>
   <time name="diag">    0.92    0.92</time>
   <time name="diis">    4.26    4.29</time>
   <time name="orth">    0.05    0.05</time>
   <time name="total">    5.53    5.56</time>
   <energy>
    <i name="e_fr_energy">    -27.41718614 </i>
    <i name="e_wo_entrp">    -27.41718614 </i>
    <i name="e_0_energy">    -27.41718614 </i>
   </energy>
  </scstep>
  <scstep>
   <time name="diag">    0.91    0.92</time>
   <time name="diis">    3.92    3.95</time>
   <time name="orth">    0.05    0.05</time>
   <time name="total">    4.95    4.98</time>
   <energy>
    <i name="alphaZ">    167.29178389 </i>
    <i name="ewald">  -3351.15882205 </i>
    <i name="hartreedc">  -2400.80055196 </i>
    <i name="XCdc">    180.93092121 </i>
    <i name="pawpsdc">   5401.48650607 </i>
    <i name="pawaedc">  -5725.26974086 </i>
    <i name="eentropy">     -0.00000000 </i>
    <i name="bandstr">   -593.39833778 </i>
    <i name="atom">   6293.50105541 </i>
    <i name="e_fr_energy">    -27.41718608 </i>
    <i name="e_wo_entrp">    -27.41718608 </i>
    <i name="e_0_energy">    -27.41718608 </i>
   </energy>
  </scstep>
  <structure>
   <crystal>
    <varray name="basis" >
     <v>       1.42001991       0.81984888       5.62822914 </v>
     <v>      -1.42001991       0.81984888       5.62822914 </v>
     <v>       0.00000000      -1.63969774       5.62822914 </v>
    </varray>
    <i name="volume">     39.31436427 </i>
    <varray name="rec_basis" >
     <v>       0.35210774       0.20328950       0.05922526 </v>
     <v>      -0.35210774       0.20328950       0.05922526 </v>
     <v>      -0.00000000      -0.40657900       0.05922526 </v>
    </varray>
   </crystal>
   <varray name="positions" >
    <v>      -0.00000000      -0.00000000      -0.00000000 </v>
    <v>       0.50000000       0.50000000       0.50000000 </v>
    <v>       0.10956631       0.10956631       0.10956631 </v>
    <v>       0.89043369       0.89043369       0.89043369 </v>
   </varray>
  </structure>
  <varray name="forces" >
   <v>      -0.00000000       0.00000000       0.00000000 </v>
   <v>      -0.00000000       0.00000000      -0.00000000 </v>
   <v>      -0.00000000      -0.00000000      -0.00181832 </v>
   <v>       0.00000000       0.00000000       0.00181832 </v>
  </varray>
  <varray name="stress" >
   <v>       0.74066761       0.00000000      -0.00000000 </v>
   <v>       0.00000000       0.74066760       0.00000000 </v>
   <v>      -0.00000000       0.00000000       0.71650967 </v>
  </varray>
  <energy>
   <i name="e_fr_energy">    -27.41718608 </i>
   <i name="e_wo_entrp">    -27.41718608 </i>
   <i name="e_0_energy">     -0.00000000 </i>
  </energy>
  <time name="totalsc">   21.88   22.01</time>
 </calculation>
 <calculation>
  <scstep>
   <time name="dav">    3.76    3.79</time>
   <time name="total">    4.06    4.10</time>
   <energy>
    <i name="alphaZ">    167.33309701 </i>
    <i name="ewald">  -3351.53314755 </i>
    <i name="hartreedc">  -2400.91656244 </i>
    <i name="XCdc">    180.94771738 </i>
    <i name="pawpsdc">   5401.48785172 </i>
    <i name="pawaedc">  -5725.27111575 </i>
    <i name="eentropy">     -0.00000000 </i>
    <i name="bandstr">   -592.96613075 </i>
    <i name="atom">   6293.50105541 </i>
    <i name="e_fr_energy">    -27.41723497 </i>
    <i name="e_wo_entrp">    -27.41723497 </i>
    <i name="e_0_energy">    -27.41723497 </i>
   </energy>
  </scstep>
  <scstep>
   <time name="diag">    0.92    0.92</time>
   <time name="diis">    4.31    4.34</time>
   <time name="orth">    0.05    0.05</time>
   <time name="total">    5.58    5.62</time>
   <energy>
    <i name="e_fr_energy">    -27.41720871 </i>
    <i name="e_wo_entrp">    -27.41720871 </i>
    <i name="e_0_energy">    -27.41720871 </i>
   </energy>
  </scstep>
  <scstep>
   <time name="diag">    0.91    0.92</time>
   <time name="diis">    4.41    4.44</time>
   <time name="orth">    0.05    0.05</time>
   <time name="total">    5.68    5.71</time>
   <energy>
    <i name="e_fr_energy">    -27.44107827 </i>
    <i name="e_wo_entrp">    -27.43724094 </i>
    <i name="e_0_energy">    -27.43915961 </i>
   </energy>
  </scstep>
  <scstep>
   <time name="diag">    0.92    0.92</time>
   <time name="diis">    4.69    4.72</time>
   <time name="orth">    0.05    0.05</time>
   <time name="total">    5.96    6.00</time>
   <energy>
    <i name="e_fr_energy">    -27.41718943 </i>
    <i name="e_wo_entrp">    -27.41718943 </i>
    <i name="e_0_energy">    -27.41718943 </i>
   </energy>
  </scstep>
  <scstep>
   <time name="diag">    0.91    0.91</time>
   <time name="diis">    4.68    4.71</time>
   <time name="orth">    0.05    0.05</time>
   <time name="total">    5.94    5.97</time>
   <energy>
    <i name="e_fr_energy">    -27.41718237 </i>
    <i name="e_wo_entrp">    -27.41718237 </i>
    <i name="e_0_energy">    -27.41718237 </i>
   </energy>
  </scstep>
  <scstep>
   <time name="diag">    0.90    0.91</time>
   <time name="diis">    4.38    4.41</time>
   <time name="orth">    0.05    0.05</time>
   <time name="total">    5.64    5.67</time>
   <energy>
    <i name="e_fr_energy">    -27.41718312 </i>
    <i name="e_wo_entrp">    -27.41718312 </i>
    <i name="e_0_energy">    -27.41718312 </i>
   </energy>
  </scstep>
  <scstep>
   <time name="diag">    0.90    0.91</time>
   <time name="diis">    4.02    4.05</time>
   <time name="orth">    0.05    0.05</time>
[...]
       <r>   32.6195    0.0000 </r>
       <r>   33.2777    0.0000 </r>
       <r>   34.5510    0.0000 </r>
      </set>
      <set comment="kpoint 103">
       <r> -105.4671    1.0000 </r>
       <r>  -63.1611    1.0000 </r>
       <r>  -62.9528    1.0000 </r>
       <r>  -62.9511    1.0000 </r>
       <r>  -15.0587    1.0000 </r>
       <r>  -13.2011    1.0000 </r>
       <r>   -1.5622    1.0000 </r>
       <r>    0.3428    1.0000 </r>
       <r>    1.8537    1.0000 </r>
       <r>    2.0657    1.0000 </r>
       <r>    2.1628    1.0000 </r>
       <r>    2.6567    1.0000 </r>
       <r>    2.7125    1.0000 </r>
       <r>    3.9890    1.0000 </r>
       <r>    4.1027    1.0000 </r>
       <r>    4.8717    1.0000 </r>
       <r>    5.0291    1.0000 </r>
       <r>    9.0581    0.0000 </r>
       <r>   11.2619    0.0000 </r>
       <r>   13.4823    0.0000 </r>
       <r>   17.8688    0.0000 </r>
       <r>   18.8686    0.0000 </r>
       <r>   19.9426    0.0000 </r>
       <r>   19.9617    0.0000 </r>
       <r>   21.2820    0.0000 </r>
       <r>   22.1355    0.0000 </r>
       <r>   23.6080    0.0000 </r>
       <r>   23.6113    0.0000 </r>
       <r>   25.3366    0.0000 </r>
       <r>   27.0154    0.0000 </r>
       <r>   28.3985    0.0000 </r>
       <r>   29.1897    0.0000 </r>
       <r>   30.1364    0.0000 </r>
       <r>   30.3282    0.0000 </r>
       <r>   31.2091    0.0000 </r>
       <r>   33.1008    0.0000 </r>
      </set>
      <set comment="kpoint 104">
       <r> -105.4667    1.0000 </r>
       <r>  -63.1609    1.0000 </r>
       <r>  -62.9562    1.0000 </r>
       <r>  -62.9523    1.0000 </r>
       <r>  -14.8161    1.0000 </r>
       <r>  -13.1192    1.0000 </r>
       <r>   -1.2913    1.0000 </r>
       <r>   -0.0971    1.0000 </r>
       <r>    1.3342    1.0000 </r>
       <r>    1.6914    1.0000 </r>
       <r>    2.1371    1.0000 </r>
       <r>    2.4546    1.0000 </r>
       <r>    2.8320    1.0000 </r>
       <r>    3.9149    1.0000 </r>
       <r>    4.2576    1.0000 </r>
       <r>    4.7698    1.0000 </r>
       <r>    4.9737    1.0000 </r>
       <r>    9.0933    0.0000 </r>
       <r>   11.9699    0.0000 </r>
       <r>   14.3101    0.0000 </r>
       <r>   17.2805    0.0000 </r>
       <r>   18.2666    0.0000 </r>
       <r>   18.9645    0.0000 </r>
       <r>   20.3453    0.0000 </r>
       <r>   20.7161    0.0000 </r>
       <r>   21.5985    0.0000 </r>
       <r>   22.6671    0.0000 </r>
       <r>   23.3937    0.0000 </r>
       <r>   26.3206    0.0000 </r>
       <r>   26.8315    0.0000 </r>
       <r>   28.6832    0.0000 </r>
       <r>   30.1230    0.0000 </r>
       <r>   30.7791    0.0000 </r>
       <r>   31.4785    0.0000 </r>
       <r>   32.2995    0.0000 </r>
       <r>   32.7355    0.0000 </r>
      </set>
      <set comment="kpoint 105">
       <r> -105.4661    1.0000 </r>
       <r>  -63.1602    1.0000 </r>
       <r>  -62.9618    1.0000 </r>
       <r>  -62.9543    1.0000 </r>
       <r>  -14.3841    1.0000 </r>
       <r>  -12.9873    1.0000 </r>
       <r>   -1.0740    1.0000 </r>
       <r>   -0.8114    1.0000 </r>
       <r>    0.6146    1.0000 </r>
       <r>    1.3742    1.0000 </r>
       <r>    1.7235    1.0000 </r>
       <r>    2.3317    1.0000 </r>
       <r>    3.2669    1.0000 </r>
       <r>    3.9058    1.0000 </r>
       <r>    4.5659    1.0000 </r>
       <r>    4.6269    1.0000 </r>
       <r>    4.8818    1.0000 </r>
       <r>    8.8677    0.0000 </r>
       <r>   13.1844    0.0000 </r>
       <r>   15.4085    0.0000 </r>
       <r>   16.3699    0.0000 </r>
       <r>   17.4283    0.0000 </r>
       <r>   17.9706    0.0000 </r>
       <r>   19.0116    0.0000 </r>
       <r>   19.9504    0.0000 </r>
       <r>   20.9396    0.0000 </r>
       <r>   22.9599    0.0000 </r>
       <r>   24.2554    0.0000 </r>
       <r>   26.2211    0.0000 </r>
       <r>   27.3443    0.0000 </r>
       <r>   28.2944    0.0000 </r>
       <r>   29.7997    0.0000 </r>
       <r>   31.5151    0.0000 </r>
       <r>   32.7637    0.0000 </r>
       <r>   32.7764    0.0000 </r>
       <r>   33.8825    0.0000 </r>
      </set>
      <set comment="kpoint 106">
       <r> -105.4655    1.0000 </r>
       <r>  -63.1596    1.0000 </r>
       <r>  -62.9676    1.0000 </r>
       <r>  -62.9561    1.0000 </r>
       <r>  -13.8591    1.0000 </r>
       <r>  -12.8980    1.0000 </r>
       <r>   -1.6654    1.0000 </r>
       <r>   -1.2003    1.0000 </r>
       <r>    0.4937    1.0000 </r>
       <r>    1.0022    1.0000 </r>
       <r>    1.4248    1.0000 </r>
       <r>    2.1511    1.0000 </r>
       <r>    3.3699    1.0000 </r>
       <r>    4.3510    1.0000 </r>
       <r>    4.4590    1.0000 </r>
       <r>    4.8210    1.0000 </r>
       <r>    5.1272    1.0000 </r>
       <r>    8.5804    0.0000 </r>
       <r>   14.0266    0.0000 </r>
       <r>   14.5763    0.0000 </r>
       <r>   15.8991    0.0000 </r>
       <r>   17.2165    0.0000 </r>
       <r>   17.5627    0.0000 </r>
       <r>   18.6202    0.0000 </r>
       <r>   18.9361    0.0000 </r>
       <r>   21.0824    0.0000 </r>
       <r>   23.2807    0.0000 </r>
       <r>   25.3433    0.0000 </r>
       <r>   26.5120    0.0000 </r>
       <r>   27.2355    0.0000 </r>
       <r>   28.1436    0.0000 </r>
       <r>   29.9621    0.0000 </r>
       <r>   31.5192    0.0000 </r>
       <r>   33.3771    0.0000 </r>
       <r>   33.4606    0.0000 </r>
       <r>   35.1818    0.0000 </r>
      </set>
      <set comment="kpoint 107">
       <r> -105.4665    1.0000 </r>
       <r>  -63.1608    1.0000 </r>
       <r>  -62.9580    1.0000 </r>
       <r>  -62.9526    1.0000 </r>
       <r>  -14.6979    1.0000 </r>
       <r>  -13.0887    1.0000 </r>
       <r>   -1.1384    1.0000 </r>
       <r>   -0.3595    1.0000 </r>
       <r>    1.0885    1.0000 </r>
       <r>    1.6726    1.0000 </r>
       <r>    1.8834    1.0000 </r>
       <r>    2.5169    1.0000 </r>
       <r>    2.9045    1.0000 </r>
       <r>    3.9564    1.0000 </r>
       <r>    4.2931    1.0000 </r>
       <r>    4.6898    1.0000 </r>
       <r>    5.0046    1.0000 </r>
       <r>    9.1056    0.0000 </r>
       <r>   12.1995    0.0000 </r>
       <r>   14.4992    0.0000 </r>
       <r>   17.0525    0.0000 </r>
       <r>   18.0950    0.0000 </r>
       <r>   18.6635    0.0000 </r>
       <r>   20.2552    0.0000 </r>
       <r>   20.4967    0.0000 </r>
       <r>   21.5039    0.0000 </r>
       <r>   23.2100    0.0000 </r>
       <r>   23.2910    0.0000 </r>
       <r>   25.3656    0.0000 </r>
       <r>   26.1151    0.0000 </r>
       <r>   29.4184    0.0000 </r>
       <r>   30.6652    0.0000 </r>
       <r>   31.3350    0.0000 </r>
       <r>   32.6466    0.0000 </r>
       <r>   32.7855    0.0000 </r>
       <r>   33.4332    0.0000 </r>
      </set>
      <set comment="kpoint 108">
       <r> -105.4661    1.0000 </r>
       <r>  -63.1603    1.0000 </r>
       <r>  -62.9618    1.0000 </r>
       <r>  -62.9543    1.0000 </r>
       <r>  -14.3796    1.0000 </r>
       <r>  -12.9943    1.0000 </r>
       <r>   -1.0510    1.0000 </r>
       <r>   -0.7697    1.0000 </r>
       <r>    0.5429    1.0000 </r>
       <r>    1.3811    1.0000 </r>
       <r>    1.7779    1.0000 </r>
       <r>    2.2421    1.0000 </r>
       <r>    3.2702    1.0000 </r>
       <r>    3.9128    1.0000 </r>
       <r>    4.5648    1.0000 </r>
       <r>    4.5986    1.0000 </r>
       <r>    4.9220    1.0000 </r>
       <r>    8.9249    0.0000 </r>
       <r>   13.1238    0.0000 </r>
       <r>   15.2609    0.0000 </r>
       <r>   16.4592    0.0000 </r>
       <r>   17.6076    0.0000 </r>
       <r>   18.0582    0.0000 </r>
       <r>   18.8454    0.0000 </r>
       <r>   19.9184    0.0000 </r>
       <r>   20.9980    0.0000 </r>
       <r>   23.0124    0.0000 </r>
       <r>   24.2944    0.0000 </r>
       <r>   25.7150    0.0000 </r>
       <r>   27.3535    0.0000 </r>
       <r>   28.8460    0.0000 </r>
       <r>   30.2073    0.0000 </r>
       <r>   31.5448    0.0000 </r>
       <r>   32.4459    0.0000 </r>
       <r>   32.9630    0.0000 </r>
       <r>   33.9862    0.0000 </r>
      </set>
      <set comment="kpoint 109">
       <r> -105.4656    1.0000 </r>
       <r>  -63.1595    1.0000 </r>
       <r>  -62.9659    1.0000 </r>
       <r>  -62.9571    1.0000 </r>
       <r>  -13.9278    1.0000 </r>
       <r>  -12.9002    1.0000 </r>
       <r>   -1.2198    1.0000 </r>
       <r>   -1.2114    1.0000 </r>
       <r>    0.1190    1.0000 </r>
       <r>    1.1731    1.0000 </r>
       <r>    1.6050    1.0000 </r>
       <r>    1.7391    1.0000 </r>
       <r>    3.7599    1.0000 </r>
       <r>    3.8344    1.0000 </r>
       <r>    4.4889    1.0000 </r>
       <r>    4.7954    1.0000 </r>
       <r>    5.1132    1.0000 </r>
       <r>    8.7857    0.0000 </r>
       <r>   14.3118    0.0000 </r>
       <r>   15.3647    0.0000 </r>
       <r>   16.5592    0.0000 </r>
       <r>   16.7050    0.0000 </r>
       <r>   17.4689    0.0000 </r>
       <r>   18.0120    0.0000 </r>
       <r>   18.3355    0.0000 </r>
       <r>   20.8605    0.0000 </r>
       <r>   23.3317    0.0000 </r>
       <r>   25.1829    0.0000 </r>
       <r>   25.8749    0.0000 </r>
       <r>   28.5359    0.0000 </r>
       <r>   29.3100    0.0000 </r>
       <r>   29.6450    0.0000 </r>
       <r>   31.4243    0.0000 </r>
       <r>   32.6938    0.0000 </r>
       <r>   33.5960    0.0000 </r>
       <r>   34.0619    0.0000 </r>
      </set>
      <set comment="kpoint 110">
       <r> -105.4659    1.0000 </r>
       <r>  -63.1601    1.0000 </r>
       <r>  -62.9650    1.0000 </r>
       <r>  -62.9544    1.0000 </r>
       <r>  -14.1902    1.0000 </r>
       <r>  -12.9541    1.0000 </r>
       <r>   -1.3387    1.0000 </r>
       <r>   -0.9794    1.0000 </r>
       <r>    0.6596    1.0000 </r>
       <r>    1.2119    1.0000 </r>
       <r>    1.5156    1.0000 </r>
       <r>    2.4392    1.0000 </r>
       <r>    3.1927    1.0000 </r>
       <r>    4.3652    1.0000 </r>
       <r>    4.5314    1.0000 </r>
       <r>    4.5372    1.0000 </r>
       <r>    4.9218    1.0000 </r>
       <r>    8.7237    0.0000 </r>
       <r>   13.3612    0.0000 </r>
       <r>   14.8103    0.0000 </r>
       <r>   16.2379    0.0000 </r>
       <r>   17.3511    0.0000 </r>
       <r>   17.8115    0.0000 </r>
       <r>   18.6602    0.0000 </r>
       <r>   20.2558    0.0000 </r>
       <r>   21.4543    0.0000 </r>
       <r>   23.1769    0.0000 </r>
       <r>   24.8154    0.0000 </r>
       <r>   25.6076    0.0000 </r>
       <r>   26.3082    0.0000 </r>
       <r>   29.1016    0.0000 </r>
       <r>   29.5860    0.0000 </r>
       <r>   31.7516    0.0000 </r>
       <r>   32.4704    0.0000 </r>
       <r>   33.5313    0.0000 </r>
       <r>   34.6785    0.0000 </r>
      </set>
      <set comment="kpoint 111">
       <r> -105.4673    1.0000 </r>
       <r>  -63.1613    1.0000 </r>
       <r>  -62.9509    1.0000 </r>
       <r>  -62.9509    1.0000 </r>
       <r>  -15.1735    1.0000 </r>
       <r>  -13.2693    1.0000 </r>
       <r>   -1.5252    1.0000 </r>
       <r>    0.3236    1.0000 </r>
       <r>    2.0814    1.0000 </r>
       <r>    2.2542    1.0000 </r>
       <r>    2.2542    1.0000 </r>
       <r>    2.7436    1.0000 </r>
       <r>    2.7436    1.0000 </r>
       <r>    4.0297    1.0000 </r>
       <r>    4.0297    1.0000 </r>
       <r>    5.0254    1.0000 </r>
       <r>    5.0254    1.0000 </r>
       <r>    9.1515    0.0000 </r>
       <r>   10.6854    0.0000 </r>
       <r>   13.0348    0.0000 </r>
       <r>   18.0810    0.0000 </r>
       <r>   19.7057    0.0000 </r>
       <r>   19.7057    0.0000 </r>
       <r>   20.9277    0.0000 </r>
       <r>   20.9277    0.0000 </r>
       <r>   21.5229    0.0000 </r>
       <r>   25.2797    0.0000 </r>
       <r>   25.1530    0.0000 </r>
       <r>   25.2812    0.0000 </r>
       <r>   26.9062    0.0000 </r>
       <r>   28.2616    0.0000 </r>
       <r>   28.6728    0.0000 </r>
       <r>   28.9721    0.0000 </r>
       <r>   29.1228    0.0000 </r>
       <r>   29.8063    0.0000 </r>
       <r>   32.1728    0.0000 </r>
      </set>
      <set comment="kpoint 112">
       <r> -105.4671    1.0000 </r>
       <r>  -63.1612    1.0000 </r>
       <r>  -62.9528    1.0000 </r>
       <r>  -62.9513    1.0000 </r>
       <r>  -15.0449    1.0000 </r>
       <r>  -13.2255    1.0000 </r>
       <r>   -1.3267    1.0000 </r>
       <r>    0.0852    1.0000 </r>
       <r>    1.8831    1.0000 </r>
       <r>    2.1041    1.0000 </r>
       <r>    2.2579    1.0000 </r>
       <r>    2.3943    1.0000 </r>
       <r>    2.7416    1.0000 </r>
       <r>    3.9897    1.0000 </r>
       <r>    4.1018    1.0000 </r>
       <r>    4.9489    1.0000 </r>
       <r>    4.9986    1.0000 </r>
       <r>    9.2592    0.0000 </r>
       <r>   11.0533    0.0000 </r>
       <r>   13.5266    0.0000 </r>
       <r>   17.9053    0.0000 </r>
       <r>   18.8642    0.0000 </r>
       <r>   19.9691    0.0000 </r>
       <r>   19.9788    0.0000 </r>
       <r>   21.1232    0.0000 </r>
       <r>   22.1526    0.0000 </r>
       <r>   23.1222    0.0000 </r>
       <r>   24.5129    0.0000 </r>
       <r>   25.7474    0.0000 </r>
       <r>   27.4653    0.0000 </r>
       <r>   28.3409    0.0000 </r>
       <r>   28.5015    0.0000 </r>
       <r>   29.8602    0.0000 </r>
       <r>   30.3859    0.0000 </r>
       <r>   30.9705    0.0000 </r>
       <r>   32.4908    0.0000 </r>
      </set>
      <set comment="kpoint 113">
       <r> -105.4666    1.0000 </r>
       <r>  -63.1608    1.0000 </r>
       <r>  -62.9580    1.0000 </r>
       <r>  -62.9527    1.0000 </r>
       <r>  -14.6945    1.0000 </r>
       <r>  -13.0944    1.0000 </r>
       <r>   -1.0578    1.0000 </r>
       <r>   -0.4494    1.0000 </r>
       <r>    1.2116    1.0000 </r>
       <r>    1.5763    1.0000 </r>
       <r>    1.8162    1.0000 </r>
       <r>    2.6212    1.0000 </r>
       <r>    2.8358    1.0000 </r>
       <r>    3.9532    1.0000 </r>
       <r>    4.2930    1.0000 </r>
       <r>    4.7473    1.0000 </r>
       <r>    4.9599    1.0000 </r>
       <r>    9.0793    0.0000 </r>
       <r>   12.2233    0.0000 </r>
       <r>   14.5975    0.0000 </r>
       <r>   17.0121    0.0000 </r>
       <r>   18.1355    0.0000 </r>
       <r>   18.5669    0.0000 </r>
       <r>   20.0028    0.0000 </r>
       <r>   20.5472    0.0000 </r>
       <r>   21.3225    0.0000 </r>
       <r>   23.2597    0.0000 </r>
       <r>   23.6946    0.0000 </r>
       <r>   25.7495    0.0000 </r>
       <r>   26.4171    0.0000 </r>
       <r>   28.7621    0.0000 </r>
       <r>   30.5487    0.0000 </r>
       <r>   30.7483    0.0000 </r>
       <r>   32.1585    0.0000 </r>
       <r>   32.7426    0.0000 </r>
       <r>   33.4301    0.0000 </r>
      </set>
      <set comment="kpoint 114">
       <r> -105.4671    1.0000 </r>
       <r>  -63.1611    1.0000 </r>
       <r>  -62.9527    1.0000 </r>
       <r>  -62.9511    1.0000 </r>
       <r>  -15.0411    1.0000 </r>
       <r>  -13.2320    1.0000 </r>
       <r>   -1.2470    1.0000 </r>
       <r>    0.0037    1.0000 </r>
       <r>    1.8562    1.0000 </r>
       <r>    2.1544    1.0000 </r>
       <r>    2.1792    1.0000 </r>
       <r>    2.5320    1.0000 </r>
       <r>    2.6359    1.0000 </r>
       <r>    3.9892    1.0000 </r>
       <r>    4.1022    1.0000 </r>
       <r>    4.9276    1.0000 </r>
       <r>    5.0343    1.0000 </r>
       <r>    9.3384    0.0000 </r>
       <r>   10.9699    0.0000 </r>
       <r>   13.5265    0.0000 </r>
       <r>   17.9052    0.0000 </r>
       <r>   18.8626    0.0000 </r>
       <r>   19.9602    0.0000 </r>
       <r>   19.9719    0.0000 </r>
       <r>   21.1846    0.0000 </r>
       <r>   22.3714    0.0000 </r>
       <r>   23.1006    0.0000 </r>
       <r>   24.1398    0.0000 </r>
       <r>   25.5403    0.0000 </r>
       <r>   27.2690    0.0000 </r>
       <r>   28.1947    0.0000 </r>
       <r>   28.8536    0.0000 </r>
       <r>   30.0846    0.0000 </r>
       <r>   30.2470    0.0000 </r>
       <r>   31.2917    0.0000 </r>
       <r>   32.2511    0.0000 </r>
      </set>
      <set comment="kpoint 115">
       <r> -105.4667    1.0000 </r>
       <r>  -63.1608    1.0000 </r>
       <r>  -62.9562    1.0000 </r>
       <r>  -62.9522    1.0000 </r>
       <r>  -14.8050    1.0000 </r>
       <r>  -13.1378    1.0000 </r>
       <r>   -1.0767    1.0000 </r>
       <r>   -0.2770    1.0000 </r>
       <r>    1.3646    1.0000 </r>
       <r>    1.6028    1.0000 </r>
       <r>    2.1919    1.0000 </r>
       <r>    2.4044    1.0000 </r>
       <r>    2.7841    1.0000 </r>
       <r>    3.9141    1.0000 </r>
       <r>    4.2575    1.0000 </r>
       <r>    4.7998    1.0000 </r>
       <r>    4.9822    1.0000 </r>
       <r>    9.1951    0.0000 </r>
       <r>   11.8543    0.0000 </r>
       <r>   14.3434    0.0000 </r>
       <r>   17.2595    0.0000 </r>
       <r>   18.3311    0.0000 </r>
       <r>   18.9273    0.0000 </r>
       <r>   20.4702    0.0000 </r>
       <r>   20.5794    0.0000 </r>
       <r>   21.6764    0.0000 </r>
       <r>   22.3801    0.0000 </r>
       <r>   23.3874    0.0000 </r>
       <r>   26.5370    0.0000 </r>
       <r>   26.7021    0.0000 </r>
       <r>   28.6207    0.0000 </r>
       <r>   29.8872    0.0000 </r>
       <r>   30.7085    0.0000 </r>
       <r>   31.7473    0.0000 </r>
       <r>   32.3287    0.0000 </r>
       <r>   32.7276    0.0000 </r>
      </set>
      <set comment="kpoint 116">
       <r> -105.4673    1.0000 </r>
       <r>  -63.1611    1.0000 </r>
       <r>  -62.9510    1.0000 </r>
       <r>  -62.9510    1.0000 </r>
       <r>  -15.1626    1.0000 </r>
       <r>  -13.2888    1.0000 </r>
       <r>   -1.3038    1.0000 </r>
       <r>    0.0613    1.0000 </r>
       <r>    2.0810    1.0000 </r>
       <r>    2.3116    1.0000 </r>
       <r>    2.3116    1.0000 </r>
       <r>    2.6692    1.0000 </r>
       <r>    2.6692    1.0000 </r>
       <r>    4.0296    1.0000 </r>
       <r>    4.0296    1.0000 </r>
       <r>    5.0448    1.0000 </r>
       <r>    5.0448    1.0000 </r>
       <r>    9.4432    0.0000 </r>
       <r>   10.3882    0.0000 </r>
       <r>   13.0539    0.0000 </r>
       <r>   18.1099    0.0000 </r>
       <r>   19.7109    0.0000 </r>
       <r>   19.7109    0.0000 </r>
       <r>   20.9154    0.0000 </r>
       <r>   20.9154    0.0000 </r>
       <r>   21.5897    0.0000 </r>
       <r>   25.2867    0.0000 </r>
       <r>   25.2550    0.0000 </r>
       <r>   25.9319    0.0000 </r>
       <r>   26.2771    0.0000 </r>
       <r>   28.2712    0.0000 </r>
       <r>   28.2654    0.0000 </r>
       <r>   29.0454    0.0000 </r>
       <r>   28.9813    0.0000 </r>
       <r>   30.1870    0.0000 </r>
       <r>   31.5856    0.0000 </r>
      </set>
     </set>
    </set>
   </array>
  </eigenvalues>
  <separator name="orbital magnetization" >
   <v name="MAGDIPOLOUT">      0.00000000      0.00000000      0.00000000</v>
  </separator>
 </calculation>
 <structure name="finalpos" >
  <crystal>
   <varray name="basis" >
    <v>       1.42005454       0.81986888       5.62827908 </v>
    <v>      -1.42005454       0.81986888       5.62827908 </v>
    <v>      -0.00000000      -1.63973774       5.62827908 </v>
   </varray>
   <i name="volume">     39.31663112 </i>
   <varray name="rec_basis" >
    <v>       0.35209915       0.20328454       0.05922473 </v>
    <v>      -0.35209915       0.20328454       0.05922473 </v>
    <v>      -0.00000000      -0.40656908       0.05922473 </v>
   </varray>
  </crystal>
  <varray name="positions" >
   <v>      -0.00000000      -0.00000000      -0.00000000 </v>
   <v>       0.50000000       0.50000000       0.50000000 </v>
   <v>       0.10956395       0.10956395       0.10956395 </v>
   <v>       0.89043605       0.89043605       0.89043605 </v>
  </varray>
 </structure>
</modeling>
