<?xml version="1.0" encoding="ISO-8859-1"?>
<modeling>
 <generator>
  <i name="program" type="string">vasp </i>
  <i name="version" type="string">5.4.4.18Apr17-6-g9f103f2a35  </i>
  <i name="subversion" type="string">(build Dec 13 2019 19:06:22) complex            parallel </i>
  <i name="platform" type="string">LinuxIFC </i>
  <i name="date" type="string">2021 07 02 </i>
  <i name="time" type="string">07:47:30 </i>
 </generator>
 <incar>
  <i type="int" name="ISTART">     1</i>
  <i type="string" name="PREC">accurate</i>
  <i type="string" name="ALGO"> Fast</i>
  <i type="int" name="ISPIN">     1</i>
  <i type="int" name="NELM">    60</i>
  <i type="int" name="IBRION">    -1</i>
  <i name="EDIFF">      0.00000010</i>
  <i name="ENCUT">    550.00000000</i>
  <i type="int" name="NBANDS">    36</i>
  <i type="logical" name="LREAL"> F  </i>
  <i type="int" name="ISMEAR">     0</i>
  <v type="int" name="KPOINT_BSE">    -1     0     0     0</v>
  <i type="int" name="NELM">    60</i>
  <i type="string" name="GGA"> PS</i>
 </incar>
 <structure name="primitive_cell" >
  <crystal>
   <varray name="basis" >
    <v>       1.42005454       0.81986888       5.62827908 </v>
    <v>      -1.42005454       0.81986888       5.62827908 </v>
    <v>       0.00000000      -1.63973774       5.62827908 </v>
   </varray>
   <i name="volume">     39.31663112 </i>
   <varray name="rec_basis" >
    <v>       0.35209915       0.20328454       0.05922473 </v>
    <v>      -0.35209915       0.20328454       0.05922473 </v>
    <v>      -0.00000000      -0.40656908       0.05922473 </v>
   </varray>
  </crystal>
  <varray name="positions" >
   <v>       0.00000000       0.00000000       0.00000000 </v>
   <v>       0.10956395       0.10956395       0.10956395 </v>
   <v>      -0.10956395      -0.10956395      -0.10956395 </v>
   <v>      -0.50000000      -0.50000000      -0.50000000 </v>
  </varray>
 </structure>
 <varray name="primitive_index" >
  <v type="int" >        1 </v>
  <v type="int" >        3 </v>
  <v type="int" >        4 </v>
  <v type="int" >        2 </v>
 </varray>
 <kpoints>
  <generation param="Gamma">
   <v type="int" name="divisions">      10       10       10 </v>
   <v name="usershift">      0.00000000       0.00000000       0.00000000 </v>
   <v name="genvec1">      0.10000000       0.00000000      -0.00000000 </v>
   <v name="genvec2">     -0.00000000       0.10000000      -0.00000000 </v>
   <v name="genvec3">     -0.00000000      -0.00000000       0.10000000 </v>
   <v name="shift">      0.00000000       0.00000000       0.00000000 </v>
  </generation>
  <varray name="kpointlist" >
   <v>       0.00000000       0.00000000       0.00000000 </v>
   <v>       0.10000000       0.00000000       0.00000000 </v>
   <v>       0.20000000       0.00000000       0.00000000 </v>
   <v>       0.30000000       0.00000000       0.00000000 </v>
   <v>       0.40000000       0.00000000       0.00000000 </v>
   <v>       0.50000000       0.00000000      -0.00000000 </v>
   <v>       0.10000000       0.10000000       0.00000000 </v>
   <v>       0.20000000       0.10000000       0.00000000 </v>
   <v>       0.30000000       0.10000000       0.00000000 </v>
   <v>       0.40000000       0.10000000       0.00000000 </v>
   <v>       0.50000000       0.10000000       0.00000000 </v>
   <v>      -0.40000000       0.10000000      -0.00000000 </v>
   <v>      -0.30000000       0.10000000       0.00000000 </v>
   <v>      -0.20000000       0.10000000      -0.00000000 </v>
   <v>      -0.10000000       0.10000000       0.00000000 </v>
   <v>       0.20000000       0.20000000      -0.00000000 </v>
   <v>       0.30000000       0.20000000       0.00000000 </v>
   <v>       0.40000000       0.20000000       0.00000000 </v>
   <v>       0.50000000       0.20000000       0.00000000 </v>
   <v>      -0.40000000       0.20000000       0.00000000 </v>
   <v>      -0.30000000       0.20000000      -0.00000000 </v>
   <v>      -0.20000000       0.20000000       0.00000000 </v>
   <v>       0.30000000       0.30000000       0.00000000 </v>
   <v>       0.40000000       0.30000000       0.00000000 </v>
   <v>       0.50000000       0.30000000      -0.00000000 </v>
   <v>      -0.40000000       0.30000000       0.00000000 </v>
   <v>      -0.30000000       0.30000000       0.00000000 </v>
   <v>       0.40000000       0.40000000      -0.00000000 </v>
   <v>       0.50000000       0.40000000       0.00000000 </v>
   <v>      -0.40000000       0.40000000       0.00000000 </v>
   <v>       0.50000000       0.50000000       0.00000000 </v>
   <v>       0.10000000       0.10000000       0.10000000 </v>
   <v>       0.20000000       0.10000000       0.10000000 </v>
   <v>       0.30000000       0.10000000       0.10000000 </v>
   <v>       0.40000000       0.10000000       0.10000000 </v>
   <v>       0.50000000       0.10000000       0.10000000 </v>
   <v>      -0.40000000       0.10000000       0.10000000 </v>
   <v>      -0.30000000       0.10000000       0.10000000 </v>
   <v>      -0.20000000       0.10000000       0.10000000 </v>
   <v>      -0.10000000       0.10000000       0.10000000 </v>
   <v>       0.20000000       0.20000000       0.10000000 </v>
   <v>       0.30000000       0.20000000       0.10000000 </v>
   <v>       0.40000000       0.20000000       0.10000000 </v>
   <v>       0.50000000       0.20000000       0.10000000 </v>
   <v>      -0.40000000       0.20000000       0.10000000 </v>
   <v>      -0.30000000       0.20000000       0.10000000 </v>
   <v>      -0.20000000       0.20000000       0.10000000 </v>
   <v>      -0.10000000       0.20000000       0.10000000 </v>
   <v>       0.30000000       0.30000000       0.10000000 </v>
   <v>       0.40000000       0.30000000       0.10000000 </v>
   <v>       0.50000000       0.30000000       0.10000000 </v>
   <v>      -0.40000000       0.30000000       0.10000000 </v>
   <v>      -0.30000000       0.30000000       0.10000000 </v>
   <v>      -0.20000000       0.30000000       0.10000000 </v>
   <v>      -0.10000000       0.30000000       0.10000000 </v>
   <v>       0.40000000       0.40000000       0.10000000 </v>
   <v>       0.50000000       0.40000000       0.10000000 </v>
   <v>      -0.40000000       0.40000000       0.10000000 </v>
   <v>      -0.30000000       0.40000000       0.10000000 </v>
   <v>      -0.20000000       0.40000000       0.10000000 </v>
   <v>      -0.10000000       0.40000000       0.10000000 </v>
   <v>       0.50000000       0.50000000       0.10000000 </v>
   <v>      -0.40000000       0.50000000       0.10000000 </v>
   <v>      -0.30000000       0.50000000       0.10000000 </v>
   <v>      -0.20000000       0.50000000       0.10000000 </v>
   <v>      -0.10000000       0.50000000       0.10000000 </v>
   <v>      -0.40000000      -0.40000000       0.10000000 </v>
   <v>      -0.30000000      -0.40000000       0.10000000 </v>
   <v>      -0.20000000      -0.40000000       0.10000000 </v>
   <v>      -0.30000000      -0.30000000       0.10000000 </v>
   <v>      -0.20000000      -0.30000000       0.10000000 </v>
   <v>      -0.20000000      -0.20000000       0.10000000 </v>
   <v>       0.20000000       0.20000000       0.20000000 </v>
   <v>       0.30000000       0.20000000       0.20000000 </v>
   <v>       0.40000000       0.20000000       0.20000000 </v>
   <v>       0.50000000       0.20000000       0.20000000 </v>
   <v>      -0.40000000       0.20000000       0.20000000 </v>
   <v>      -0.30000000       0.20000000       0.20000000 </v>
   <v>      -0.20000000       0.20000000       0.20000000 </v>
   <v>       0.30000000       0.30000000       0.20000000 </v>
   <v>       0.40000000       0.30000000       0.20000000 </v>
   <v>       0.50000000       0.30000000       0.20000000 </v>
   <v>      -0.40000000       0.30000000       0.20000000 </v>
   <v>      -0.30000000       0.30000000       0.20000000 </v>
   <v>      -0.20000000       0.30000000       0.20000000 </v>
   <v>       0.40000000       0.40000000       0.20000000 </v>
   <v>       0.50000000       0.40000000       0.20000000 </v>
   <v>      -0.40000000       0.40000000       0.20000000 </v>
   <v>      -0.30000000       0.40000000       0.20000000 </v>
   <v>      -0.20000000       0.40000000       0.20000000 </v>
   <v>       0.50000000       0.50000000       0.20000000 </v>
   <v>      -0.40000000       0.50000000       0.20000000 </v>
   <v>      -0.30000000       0.50000000       0.20000000 </v>
   <v>      -0.20000000       0.50000000       0.20000000 </v>
   <v>      -0.40000000      -0.40000000       0.20000000 </v>
   <v>      -0.30000000      -0.40000000       0.20000000 </v>
   <v>      -0.30000000      -0.30000000       0.20000000 </v>
   <v>       0.30000000       0.30000000       0.30000000 </v>
   <v>       0.40000000       0.30000000       0.30000000 </v>
   <v>       0.50000000       0.30000000       0.30000000 </v>
   <v>      -0.40000000       0.30000000       0.30000000 </v>
   <v>      -0.30000000       0.30000000       0.30000000 </v>
   <v>       0.40000000       0.40000000       0.30000000 </v>
   <v>       0.50000000       0.40000000       0.30000000 </v>
   <v>      -0.40000000       0.40000000       0.30000000 </v>
   <v>      -0.30000000       0.40000000       0.30000000 </v>
   <v>       0.50000000       0.50000000       0.30000000 </v>
   <v>      -0.40000000       0.50000000       0.30000000 </v>
   <v>      -0.30000000       0.50000000       0.30000000 </v>
   <v>      -0.40000000      -0.40000000       0.30000000 </v>
   <v>       0.40000000       0.40000000       0.40000000 </v>
   <v>       0.50000000       0.40000000       0.40000000 </v>
   <v>      -0.40000000       0.40000000       0.40000000 </v>
   <v>       0.50000000       0.50000000       0.40000000 </v>
   <v>      -0.40000000       0.50000000       0.40000000 </v>
   <v>       0.50000000       0.50000000       0.50000000 </v>
  </varray>
  <varray name="weights" >
   <v>       0.00100000 </v>
   <v>       0.00600000 </v>
   <v>       0.00600000 </v>
   <v>       0.00600000 </v>
   <v>       0.00600000 </v>
   <v>       0.00300000 </v>
   <v>       0.00600000 </v>
   <v>       0.01200000 </v>
   <v>       0.01200000 </v>
   <v>       0.01200000 </v>
   <v>       0.01200000 </v>
   <v>       0.01200000 </v>
   <v>       0.01200000 </v>
   <v>       0.01200000 </v>
   <v>       0.00600000 </v>
   <v>       0.00600000 </v>
   <v>       0.01200000 </v>
   <v>       0.01200000 </v>
   <v>       0.01200000 </v>
   <v>       0.01200000 </v>
   <v>       0.01200000 </v>
   <v>       0.00600000 </v>
   <v>       0.00600000 </v>
   <v>       0.01200000 </v>
   <v>       0.01200000 </v>
   <v>       0.01200000 </v>
   <v>       0.00600000 </v>
   <v>       0.00600000 </v>
   <v>       0.01200000 </v>
   <v>       0.00600000 </v>
   <v>       0.00300000 </v>
   <v>       0.00200000 </v>
   <v>       0.00600000 </v>
   <v>       0.00600000 </v>
   <v>       0.00600000 </v>
   <v>       0.00600000 </v>
   <v>       0.00600000 </v>
   <v>       0.00600000 </v>
   <v>       0.00600000 </v>
   <v>       0.00600000 </v>
   <v>       0.00600000 </v>
   <v>       0.01200000 </v>
   <v>       0.01200000 </v>
   <v>       0.01200000 </v>
   <v>       0.01200000 </v>
   <v>       0.01200000 </v>
   <v>       0.01200000 </v>
   <v>       0.01200000 </v>
   <v>       0.00600000 </v>
   <v>       0.01200000 </v>
   <v>       0.01200000 </v>
   <v>       0.01200000 </v>
   <v>       0.01200000 </v>
   <v>       0.01200000 </v>
   <v>       0.01200000 </v>
   <v>       0.00600000 </v>
   <v>       0.01200000 </v>
   <v>       0.01200000 </v>
   <v>       0.01200000 </v>
   <v>       0.01200000 </v>
   <v>       0.01200000 </v>
   <v>       0.00600000 </v>
   <v>       0.01200000 </v>
   <v>       0.01200000 </v>
   <v>       0.01200000 </v>
   <v>       0.00600000 </v>
   <v>       0.00600000 </v>
   <v>       0.01200000 </v>
   <v>       0.01200000 </v>
   <v>       0.00600000 </v>
   <v>       0.01200000 </v>
   <v>       0.00600000 </v>
   <v>       0.00200000 </v>
   <v>       0.00600000 </v>
   <v>       0.00600000 </v>
   <v>       0.00600000 </v>
   <v>       0.00600000 </v>
   <v>       0.00600000 </v>
   <v>       0.00600000 </v>
   <v>       0.00600000 </v>
   <v>       0.01200000 </v>
   <v>       0.01200000 </v>
   <v>       0.01200000 </v>
   <v>       0.01200000 </v>
   <v>       0.01200000 </v>
   <v>       0.00600000 </v>
   <v>       0.01200000 </v>
   <v>       0.01200000 </v>
   <v>       0.01200000 </v>
   <v>       0.01200000 </v>
   <v>       0.00600000 </v>
   <v>       0.01200000 </v>
   <v>       0.01200000 </v>
   <v>       0.00600000 </v>
   <v>       0.00600000 </v>
   <v>       0.01200000 </v>
   <v>       0.00600000 </v>
   <v>       0.00200000 </v>
   <v>       0.00600000 </v>
   <v>       0.00600000 </v>
   <v>       0.00600000 </v>
   <v>       0.00600000 </v>
   <v>       0.00600000 </v>
   <v>       0.01200000 </v>
   <v>       0.01200000 </v>
   <v>       0.01200000 </v>
   <v>       0.00600000 </v>
   <v>       0.01200000 </v>
   <v>       0.00600000 </v>
   <v>       0.00600000 </v>
   <v>       0.00200000 </v>
   <v>       0.00600000 </v>
   <v>       0.00600000 </v>
   <v>       0.00600000 </v>
   <v>       0.00600000 </v>
   <v>       0.00100000 </v>
  </varray>
 </kpoints>
 <parameters>
  <separator name="general" >
   <i type="string" name="SYSTEM">unknown system</i>
   <i type="logical" name="LCOMPAT"> F  </i>
  </separator>
  <separator name="electronic" >
   <i type="string" name="PREC">accura</i>
   <i name="ENMAX">    550.00000000</i>
   <i name="ENAUG">    982.89200000</i>
   <i name="EDIFF">      0.00000010</i>
   <i type="int" name="IALGO">    68</i>
   <i type="int" name="IWAVPR">    10</i>
   <i type="int" name="NBANDS">    36</i>
   <i name="NELECT">     34.00000000</i>
   <i type="int" name="TURBO">     0</i>
   <i type="int" name="IRESTART">     0</i>
   <i type="int" name="NREBOOT">     0</i>
   <i type="int" name="NMIN">     0</i>
   <i name="EREF">      0.00000000</i>
   <separator name="electronic smearing" >
    <i type="int" name="ISMEAR">     0</i>
    <i name="SIGMA">      0.20000000</i>
    <i name="KSPACING">      0.50000000</i>
    <i type="logical" name="KGAMMA"> T  </i>
   </separator>
   <separator name="electronic projectors" >
    <i type="logical" name="LREAL"> F  </i>
    <v name="ROPT">      0.00000000      0.00000000      0.00000000</v>
    <i type="int" name="LMAXPAW">  -100</i>
    <i type="int" name="LMAXMIX">     2</i>
    <i type="logical" name="NLSPLINE"> F  </i>
   </separator>
   <separator name="electronic startup" >
    <i type="int" name="ISTART">     1</i>
    <i type="int" name="ICHARG">     0</i>
    <i type="int" name="INIWAV">     1</i>
   </separator>
   <separator name="electronic spin" >
    <i type="int" name="ISPIN">     1</i>
    <i type="logical" name="LNONCOLLINEAR"> F  </i>
    <v name="MAGMOM">      1.00000000      1.00000000      1.00000000      1.00000000</v>
    <i name="NUPDOWN">     -1.00000000</i>
    <i type="logical" name="LSORBIT"> F  </i>
    <v name="SAXIS">      0.00000000      0.00000000      1.00000000</v>
    <i type="logical" name="LSPIRAL"> F  </i>
    <v name="QSPIRAL">      0.00000000      0.00000000      0.00000000</v>
    <i type="logical" name="LZEROZ"> F  </i>
   </separator>
   <separator name="electronic exchange-correlation" >
    <i type="logical" name="LASPH"> F  </i>
    <i type="logical" name="LMETAGGA"> F  </i>
   </separator>
   <separator name="electronic convergence" >
    <i type="int" name="NELM">    60</i>
    <i type="int" name="NELMDL">     0</i>
    <i type="int" name="NELMIN">     2</i>
    <i name="ENINI">    550.00000000</i>
    <separator name="electronic convergence detail" >
     <i type="logical" name="LDIAG"> T  </i>
     <i type="logical" name="LSUBROT"> F  </i>
     <i name="WEIMIN">      0.00000000</i>
     <i name="EBREAK">      0.00000000</i>
     <i name="DEPER">      0.30000000</i>
     <i type="int" name="NRMM">     4</i>
     <i name="TIME">      0.40000000</i>
    </separator>
   </separator>
   <separator name="electronic mixer" >
    <i name="AMIX">      0.40000000</i>
    <i name="BMIX">      1.00000000</i>
    <i name="AMIN">      0.10000000</i>
    <i name="AMIX_MAG">      1.60000000</i>
    <i name="BMIX_MAG">      1.00000000</i>
    <separator name="electronic mixer details" >
     <i type="int" name="IMIX">     4</i>
     <i type="logical" name="MIXFIRST"> F  </i>
     <i type="int" name="MAXMIX">   -45</i>
     <i name="WC">    100.00000000</i>
     <i type="int" name="INIMIX">     1</i>
     <i type="int" name="MIXPRE">     1</i>
     <i type="int" name="MREMOVE">     5</i>
    </separator>
   </separator>
   <separator name="electronic dipolcorrection" >
    <i type="logical" name="LDIPOL"> F  </i>
    <i type="logical" name="LMONO"> F  </i>
    <i type="int" name="IDIPOL">     0</i>
    <i name="EPSILON">      1.00000000</i>
    <v name="DIPOL">   -100.00000000   -100.00000000   -100.00000000</v>
    <i name="EFIELD">      0.00000000</i>
   </separator>
  </separator>
  <separator name="grids" >
   <i type="int" name="NGX">    48</i>
   <i type="int" name="NGY">    48</i>
   <i type="int" name="NGZ">    48</i>
   <i type="int" name="NGXF">    96</i>
   <i type="int" name="NGYF">    96</i>
   <i type="int" name="NGZF">    96</i>
   <i type="logical" name="ADDGRID"> F  </i>
  </separator>
  <separator name="ionic" >
   <i type="int" name="NSW">     0</i>
   <i type="int" name="IBRION">    -1</i>
   <i type="int" name="MDALGO">     0</i>
   <i type="int" name="ISIF">     2</i>
   <i name="PSTRESS">      0.00000000</i>
   <i name="EDIFFG">      0.00000100</i>
   <i type="int" name="NFREE">     0</i>
   <i name="POTIM">      0.50000000</i>
   <i name="SMASS">     -3.00000000</i>
   <i name="SCALEE">      1.00000000</i>
  </separator>
  <separator name="ionic md" >
   <i name="TEBEG">      0.00010000</i>
   <i name="TEEND">      0.00010000</i>
   <i type="int" name="NBLOCK">     1</i>
   <i type="int" name="KBLOCK">     1</i>
   <i type="int" name="NPACO">   256</i>
   <i name="APACO">     16.00000000</i>
  </separator>
  <separator name="symmetry" >
   <i type="int" name="ISYM">     2</i>
   <i name="SYMPREC">      0.00001000</i>
  </separator>
  <separator name="dos" >
   <i type="int" name="LORBIT">     0</i>
   <v name="RWIGS">     -1.00000000     -1.00000000     -1.00000000</v>
   <i type="int" name="NEDOS">   301</i>
   <i name="EMIN">     10.00000000</i>
   <i name="EMAX">    -10.00000000</i>
   <i name="EFERMI">      0.00000000</i>
  </separator>
  <separator name="writing" >
   <i type="int" name="NWRITE">     2</i>
   <i type="logical" name="LWAVE"> T  </i>
   <i type="logical" name="LDOWNSAMPLE"> F  </i>
   <i type="logical" name="LCHARG"> T  </i>
   <i type="logical" name="LPARD"> F  </i>
   <i type="logical" name="LVTOT"> F  </i>
   <i type="logical" name="LVHAR"> F  </i>
   <i type="logical" name="LELF"> F  </i>
   <i type="logical" name="LOPTICS"> F  </i>
   <v name="STM">      0.00000000      0.00000000      0.00000000      0.00000000      0.00000000      0.00000000      0.00000000</v>
  </separator>
  <separator name="performance" >
   <i type="int" name="NPAR">     2</i>
   <i type="int" name="NSIM">     4</i>
   <i type="int" name="NBLK">    -1</i>
   <i type="logical" name="LPLANE"> T  </i>
   <i type="logical" name="LSCALAPACK"> T  </i>
   <i type="logical" name="LSCAAWARE"> F  </i>
   <i type="logical" name="LSCALU"> F  </i>
   <i type="logical" name="LASYNC"> F  </i>
   <i type="logical" name="LORBITALREAL"> F  </i>
  </separator>
  <separator name="miscellaneous" >
   <i type="int" name="IDIOT">     3</i>
   <i type="int" name="ISPECIAL">     0</i>
   <i type="logical" name="LMUSIC"> F  </i>
   <v name="POMASS">     63.54600000     26.98200000     16.00000000</v>
   <v name="DARWINR">      0.00000000      0.00000000      0.00000000</v>
   <v name="DARWINV">      1.00000000      1.00000000      1.00000000</v>
   <i type="logical" name="LCORR"> T  </i>
  </separator>
  <i type="logical" name="GGA_COMPAT"> T  </i>
  <i type="logical" name="LBERRY"> F  </i>
  <i type="int" name="ICORELEVEL">     0</i>
  <i type="logical" name="LDAU"> F  </i>
  <i type="int" name="I_CONSTRAINED_M">     0</i>
  <separator name="electronic exchange-correlation" >
   <i type="string" name="GGA">PS</i>
   <i type="int" name="VOSKOWN">     0</i>
   <i type="logical" name="LHFCALC"> F  </i>
   <i type="string" name="PRECFOCK"></i>
   <i type="logical" name="LSYMGRAD"> F  </i>
   <i type="logical" name="LHFONE"> F  </i>
   <i type="logical" name="LRHFCALC"> F  </i>
   <i type="logical" name="LTHOMAS"> F  </i>
   <i type="logical" name="LMODELHF"> F  </i>
   <i name="ENCUT4O">     -1.00000000</i>
   <i type="int" name="EXXOEP">     0</i>
   <i type="int" name="FOURORBIT">     0</i>
   <i name="AEXX">      0.00000000</i>
   <i name="HFALPHA">      0.00000000</i>
   <i name="MCALPHA">      0.00000000</i>
   <i name="ALDAX">      1.00000000</i>
   <i name="AGGAX">      1.00000000</i>
   <i name="ALDAC">      1.00000000</i>
   <i name="AGGAC">      1.00000000</i>
   <i type="int" name="NKREDX">     1</i>
   <i type="int" name="NKREDY">     1</i>
   <i type="int" name="NKREDZ">     1</i>
   <i type="logical" name="SHIFTRED"> F  </i>
   <i type="logical" name="ODDONLY"> F  </i>
   <i type="logical" name="EVENONLY"> F  </i>
   <i type="int" name="LMAXFOCK">     0</i>
   <i type="int" name="NMAXFOCKAE">     0</i>
   <i type="logical" name="LFOCKAEDFT"> F  </i>
   <i name="HFSCREEN">      0.00000000</i>
   <i name="HFSCREENC">      0.00000000</i>
   <i type="int" name="NBANDSGWLOW">     0</i>
  </separator>
  <separator name="vdW DFT" >
   <i type="logical" name="LUSE_VDW"> F  </i>
   <i name="Zab_VDW">     -0.84910000</i>
   <i name="PARAM1">      0.12340000</i>
   <i name="PARAM2">      1.00000000</i>
   <i name="PARAM3">      0.00000000</i>
  </separator>
  <separator name="model GW" >
   <i type="int" name="MODEL_GW">     0</i>
   <i name="MODEL_EPS0">      5.89749467</i>
   <i name="MODEL_ALPHA">      1.00000000</i>
  </separator>
  <separator name="linear response parameters" >
   <i type="logical" name="LEPSILON"> F  </i>
   <i type="logical" name="LRPA"> F  </i>
   <i type="logical" name="LNABLA"> F  </i>
   <i type="logical" name="LVEL"> F  </i>
   <i type="int" name="KINTER">     0</i>
   <i name="CSHIFT">      0.10000000</i>
   <i name="OMEGAMAX">     -1.00000000</i>
   <i name="DEG_THRESHOLD">      0.00200000</i>
   <i name="RTIME">     -0.10000000</i>
   <i name="WPLASMAI">      0.00000000</i>
   <v name="DFIELD">      0.00000000      0.00000000      0.00000000</v>
   <v name="WPLASMA">      0.00000000      0.00000000      0.00000000      0.00000000      0.00000000      0.00000000      0.00000000      0.00000000      0.00000000</v>
  </separator>
  <separator name="orbital magnetization" >
   <i type="logical" name="NUCIND"> F  </i>
   <v name="MAGPOS">      0.00000000      0.00000000      0.00000000</v>
   <i type="logical" name="LNICSALL"> T  </i>
   <i type="logical" name="ORBITALMAG"> F  </i>
   <i type="logical" name="LMAGBLOCH"> F  </i>
   <i type="logical" name="LCHIMAG"> F  </i>
   <i type="logical" name="LGAUGE"> T  </i>
   <i type="int" name="MAGATOM">     0</i>
   <v name="MAGDIPOL">      0.00000000      0.00000000      0.00000000</v>
   <v name="AVECCONST">      0.00000000      0.00000000      0.00000000</v>
  </separator>
  <separator name="response functions" >
   <i type="logical" name="LADDER"> F  </i>
   <i type="logical" name="LRPAFORCE"> F  </i>
   <i type="logical" name="LFXC"> F  </i>
   <i type="logical" name="LHARTREE"> T  </i>
   <i type="int" name="IBSE">     0</i>
   <v type="int" name="KPOINT">    -1     0     0     0</v>
   <i type="logical" name="LTCTE"> F  </i>
   <i type="logical" name="LTETE"> F  </i>
   <i type="logical" name="LTRIPLET"> F  </i>
   <i type="logical" name="LFXCEPS"> F  </i>
   <i type="logical" name="LFXHEG"> F  </i>
   <i type="int" name="NATURALO">     2</i>
   <i type="logical" name="L2ORDER"> F  </i>
   <i type="logical" name="LMP2LT"> F  </i>
   <i type="logical" name="LUSEW"> F  </i>
   <i name="ENCUTGW">     -2.00000000</i>
   <i name="ENCUTGWSOFT">     -2.00000000</i>
   <i name="ENCUTLF">     -1.00000000</i>
   <i type="int" name="LMAXMP2">    -1</i>
   <i name="SCISSOR">      0.00000000</i>
   <i type="int" name="NOMEGA">     0</i>
   <i type="int" name="NOMEGAR">     0</i>
   <i type="int" name="NBANDSGW">    -1</i>
   <i type="int" name="NBANDSO">    -1</i>
   <i type="int" name="NBANDSV">    -1</i>
   <i type="int" name="NELM">    60</i>
   <i type="int" name="NELMHF">     1</i>
   <i type="int" name="DIM">     3</i>
   <i type="int" name="ANTIRES">     0</i>
   <i name="OMEGAMAX">    -30.00000000</i>
   <i name="OMEGAMIN">    -30.00000000</i>
   <i name="OMEGATL">   -200.00000000</i>
   <i type="int" name="OMEGAGRID">   140</i>
   <i name="CSHIFT">     -0.10000000</i>
   <i type="logical" name="SELFENERGY"> F  </i>
   <i type="logical" name="LSPECTRAL"> F  </i>
   <i type="logical" name="LSPECTRALGW"> F  </i>
   <i type="logical" name="LSINGLES"> F  </i>
   <i type="logical" name="LFERMIGW"> F  </i>
   <i type="logical" name="ODDONLYGW"> F  </i>
   <i type="logical" name="EVENONLYGW"> F  </i>
   <i type="int" name="NKREDLFX">     1</i>
   <i type="int" name="NKREDLFY">     1</i>
   <i type="int" name="NKREDLFZ">     1</i>
   <i type="int" name="MAXMEM">  2800</i>
   <i type="int" name="TELESCOPE">     0</i>
   <i type="int" name="TAUPAR">     1</i>
   <i type="int" name="OMEGAPAR">    -1</i>
   <i name="LAMBDA">      1.00000000</i>
  </separator>
  <separator name="External order field" >
   <i name="OFIELD_KAPPA">      0.00000000</i>
   <v name="OFIELD_K">      0.00000000      0.00000000      0.00000000</v>
   <i name="OFIELD_Q6_NEAR">      0.00000000</i>
   <i name="OFIELD_Q6_FAR">      0.00000000</i>
   <i name="OFIELD_A">      0.00000000</i>
  </separator>
 </parameters>
 <atominfo>
  <atoms>       4 </atoms>
  <types>       3 </types>
  <array name="atoms" >
   <dimension dim="1">ion</dimension>
   <field type="string">element</field>
   <field type="int">atomtype</field>
   <set>
    <rc><c>Cu</c><c>   1</c></rc>
    <rc><c>Al</c><c>   2</c></rc>
    <rc><c>O </c><c>   3</c></rc>
    <rc><c>O </c><c>   3</c></rc>
   </set>
  </array>
  <array name="atomtypes" >
   <dimension dim="1">type</dimension>
   <field type="int">atomspertype</field>
   <field type="string">element</field>
   <field>mass</field>
   <field>valence</field>
   <field type="string">pseudopotential</field>
   <set>
    <rc><c>   1</c><c>Cu</c><c>     63.54600000</c><c>     19.00000000</c><c>  PAW_PBE Cu_sv_GW 05Dec2013            </c></rc>
    <rc><c>   1</c><c>Al</c><c>     26.98200000</c><c>      3.00000000</c><c>  PAW_PBE Al_GW 19Mar2012               </c></rc>
    <rc><c>   2</c><c>O </c><c>     16.00000000</c><c>      6.00000000</c><c>  PAW_PBE O_GW 28Sep2005                </c></rc>
   </set>
  </array>
 </atominfo>
 <structure name="initialpos" >
  <crystal>
   <varray name="basis" >
    <v>       1.42005454       0.81986888       5.62827908 </v>
    <v>      -1.42005454       0.81986888       5.62827908 </v>
    <v>       0.00000000      -1.63973774       5.62827908 </v>
   </varray>
   <i name="volume">     39.31663112 </i>
   <varray name="rec_basis" >
    <v>       0.35209915       0.20328454       0.05922473 </v>
    <v>      -0.35209915       0.20328454       0.05922473 </v>
    <v>      -0.00000000      -0.40656908       0.05922473 </v>
   </varray>
  </crystal>
  <varray name="positions" >
   <v>       0.00000000       0.00000000       0.00000000 </v>
   <v>       0.50000000       0.50000000       0.50000000 </v>
   <v>       0.10956395       0.10956395       0.10956395 </v>
   <v>       0.89043605       0.89043605       0.89043605 </v>
  </varray>
 </structure>
 <calculation>
  <scstep>
   <time name="dav">    3.96    3.99</time>
   <time name="total">    4.27    4.30</time>
   <energy>
    <i name="alphaZ">    167.28213847 </i>
    <i name="ewald">  -3351.06778558 </i>
    <i name="hartreedc">  -2402.88279582 </i>
    <i name="XCdc">    180.99778902 </i>
    <i name="pawpsdc">   5404.62236688 </i>
    <i name="pawaedc">  -5729.61816757 </i>
    <i name="eentropy">     -0.00000000 </i>
    <i name="bandstr">   -590.25257798 </i>
    <i name="atom">   6293.50105541 </i>
    <i name="e_fr_energy">    -27.41797717 </i>
    <i name="e_wo_entrp">    -27.41797717 </i>
    <i name="e_0_energy">    -27.41797717 </i>
   </energy>
  </scstep>
  <scstep>
   <time name="diag">    0.92    0.92</time>
   <time name="diis">    5.09    5.12</time>
   <time name="orth">    0.06    0.06</time>
   <time name="total">    6.36    6.40</time>
   <energy>
    <i name="e_fr_energy">    -27.41713235 </i>
    <i name="e_wo_entrp">    -27.41713235 </i>
    <i name="e_0_energy">    -27.41713235 </i>
   </energy>
  </scstep>
  <scstep>
   <time name="diag">    0.91    0.92</time>
   <time name="diis">    4.77    4.80</time>
   <time name="orth">    0.06    0.06</time>
   <time name="total">    6.04    6.08</time>
   <energy>
    <i name="e_fr_energy">    -27.41125958 </i>
    <i name="e_wo_entrp">    -27.41125958 </i>
    <i name="e_0_energy">    -27.41125958 </i>
   </energy>
  </scstep>
  <scstep>
   <time name="diag">    0.91    0.92</time>
   <time name="diis">    5.34    5.37</time>
   <time name="orth">    0.06    0.06</time>
   <time name="total">    6.60    6.65</time>
   <energy>
    <i name="e_fr_energy">    -27.41132863 </i>
    <i name="e_wo_entrp">    -27.41132863 </i>
    <i name="e_0_energy">    -27.41132863 </i>
   </energy>
  </scstep>
  <scstep>
   <time name="diag">    0.91    0.92</time>
   <time name="diis">    5.53    5.57</time>
   <time name="orth">    0.06    0.06</time>
   <time name="total">    6.82    6.86</time>
   <energy>
    <i name="e_fr_energy">    -27.41132770 </i>
    <i name="e_wo_entrp">    -27.41132770 </i>
    <i name="e_0_energy">    -27.41132770 </i>
   </energy>
  </scstep>
  <scstep>
   <time name="diag">    0.92    0.93</time>
   <time name="diis">    5.19    5.23</time>
   <time name="orth">    0.05    0.05</time>
   <time name="total">    6.48    6.52</time>
   <energy>
    <i name="e_fr_energy">    -27.41131602 </i>
    <i name="e_wo_entrp">    -27.41131602 </i>
    <i name="e_0_energy">    -27.41131602 </i>
   </energy>
  </scstep>
  <scstep>
   <time name="diag">    0.91    0.92</time>
   <time name="diis">    4.99    5.02</time>
   <time name="orth">    0.06    0.06</time>
   <time name="total">    6.26    6.29</time>
   <energy>
    <i name="e_fr_energy">    -27.41131025 </i>
    <i name="e_wo_entrp">    -27.41131025 </i>
    <i name="e_0_energy">    -27.41131025 </i>
   </energy>
  </scstep>
  <scstep>
   <time name="diag">    0.91    0.92</time>
   <time name="diis">    5.33    5.37</time>
   <time name="orth">    0.05    0.05</time>
   <time name="total">    6.60    6.64</time>
   <energy>
    <i name="e_fr_energy">    -27.41131100 </i>
    <i name="e_wo_entrp">    -27.41131100 </i>
    <i name="e_0_energy">    -27.41131100 </i>
   </energy>
  </scstep>
  <scstep>
   <time name="diag">    0.91    0.92</time>
   <time name="diis">    4.76    4.79</time>
   <time name="orth">    0.05    0.05</time>
   <time name="total">    6.02    6.06</time>
   <energy>
    <i name="e_fr_energy">    -27.41131108 </i>
    <i name="e_wo_entrp">    -27.41131108 </i>
    <i name="e_0_energy">    -27.41131108 </i>
   </energy>
  </scstep>
  <scstep>
   <time name="diag">    0.93    0.94</time>
   <time name="diis">    4.40    4.43</time>
   <time name="orth">    0.05    0.05</time>
   <time name="total">    5.45    5.49</time>
   <energy>
    <i name="alphaZ">    167.28213847 </i>
    <i name="ewald">  -3351.06778558 </i>
    <i name="hartreedc">  -2400.81918432 </i>
    <i name="XCdc">    180.92806367 </i>
    <i name="pawpsdc">   5402.03852881 </i>
    <i name="pawaedc">  -5725.87099306 </i>
    <i name="eentropy">     -0.00000000 </i>
    <i name="bandstr">   -593.40313457 </i>
    <i name="atom">   6293.50105541 </i>
    <i name="e_fr_energy">    -27.41131117 </i>
    <i name="e_wo_entrp">    -27.41131117 </i>
    <i name="e_0_energy">    -27.41131117 </i>
   </energy>
  </scstep>
  <structure>
   <crystal>
    <varray name="basis" >
     <v>       1.42005454       0.81986888       5.62827908 </v>
     <v>      -1.42005454       0.81986888       5.62827908 </v>
     <v>       0.00000000      -1.63973774       5.62827908 </v>
    </varray>
    <i name="volume">     39.31663112 </i>
    <varray name="rec_basis" >
     <v>       0.35209915       0.20328454       0.05922473 </v>
     <v>      -0.35209915       0.20328454       0.05922473 </v>
     <v>      -0.00000000      -0.40656908       0.05922473 </v>
    </varray>
   </crystal>
   <varray name="positions" >
    <v>       0.00000000       0.00000000       0.00000000 </v>
    <v>       0.50000000       0.50000000       0.50000000 </v>
    <v>       0.10956395       0.10956395       0.10956395 </v>
    <v>       0.89043605       0.89043605       0.89043605 </v>
   </varray>
  </structure>
  <varray name="forces" >
   <v>      -0.00000000       0.00000000      -0.00000000 </v>
   <v>      -0.00000000       0.00000000      -0.00000000 </v>
   <v>      -0.00000000      -0.00000000      -0.00013860 </v>
   <v>       0.00000000       0.00000000       0.00013860 </v>
  </varray>
  <varray name="stress" >
   <v>       1.20996650       0.00000000       0.00000000 </v>
   <v>       0.00000000       1.20996650       0.00000000 </v>
   <v>       0.00000000       0.00000000       0.99807469 </v>
  </varray>
  <energy>
   <i name="e_fr_energy">    -27.41131117 </i>
   <i name="e_wo_entrp">    -27.41131117 </i>
   <i name="e_0_energy">     -0.00000000 </i>
  </energy>
  <time name="totalsc">   63.18   63.58</time>
  <eigenvalues>
   <array>
    <dimension dim="1">band</dimension>
    <dimension dim="2">kpoint</dimension>
    <dimension dim="3">spin</dimension>
    <field>eigene</field>
    <field>occ</field>
    <set>
     <set comment="spin 1">
      <set comment="kpoint 1">
       <r> -105.4668    1.0000 </r>
       <r>  -63.1619    1.0000 </r>
       <r>  -62.9508    1.0000 </r>
       <r>  -62.9508    1.0000 </r>
       <r>  -15.2682    1.0000 </r>
       <r>  -13.0915    1.0000 </r>
       <r>   -2.5938    1.0000 </r>
       <r>    1.8892    1.0000 </r>
       <r>    1.9927    1.0000 </r>
       <r>    1.9927    1.0000 </r>
       <r>    2.0487    1.0000 </r>
       <r>    3.1931    1.0000 </r>
       <r>    3.1931    1.0000 </r>
       <r>    4.0295    1.0000 </r>
       <r>    4.0295    1.0000 </r>
       <r>    4.8151    1.0000 </r>
       <r>    4.8151    1.0000 </r>
       <r>    7.7733    0.0000 </r>
       <r>   11.9065    0.0000 </r>
       <r>   13.1285    0.0000 </r>
       <r>   17.5378    0.0000 </r>
       <r>   19.6654    0.0000 </r>
       <r>   19.6647    0.0000 </r>
       <r>   24.6428    0.0000 </r>
       <r>   25.8754    0.0000 </r>
       <r>   25.9399    0.0000 </r>
       <r>   26.9541    0.0000 </r>
       <r>   26.9546    0.0000 </r>
       <r>   27.2138    0.0000 </r>
       <r>   30.2118    0.0000 </r>
       <r>   31.0432    0.0000 </r>
       <r>   31.0450    0.0000 </r>
       <r>   31.8677    0.0000 </r>
       <r>   22.6195    0.0000 </r>
       <r>   22.9738    0.0000 </r>
       <r>   36.6167    0.0000 </r>
      </set>
      <set comment="kpoint 2">
       <r> -105.4666    1.0000 </r>
       <r>  -63.1613    1.0000 </r>
       <r>  -62.9527    1.0000 </r>
       <r>  -62.9513    1.0000 </r>
       <r>  -15.1449    1.0000 </r>
       <r>  -13.0424    1.0000 </r>
       <r>   -2.4664    1.0000 </r>
       <r>    1.1795    1.0000 </r>
       <r>    1.8172    1.0000 </r>
       <r>    1.8853    1.0000 </r>
       <r>    2.4514    1.0000 </r>
       <r>    2.9413    1.0000 </r>
       <r>    3.1396    1.0000 </r>
       <r>    3.9917    1.0000 </r>
       <r>    4.1043    1.0000 </r>
       <r>    4.7585    1.0000 </r>
       <r>    4.7938    1.0000 </r>
       <r>    7.9741    0.0000 </r>
       <r>   12.3196    0.0000 </r>
       <r>   13.4327    0.0000 </r>
       <r>   17.5230    0.0000 </r>
       <r>   18.9023    0.0000 </r>
       <r>   19.8912    0.0000 </r>
       <r>   23.7873    0.0000 </r>
       <r>   24.7738    0.0000 </r>
       <r>   25.6994    0.0000 </r>
       <r>   27.5871    0.0000 </r>
       <r>   27.6715    0.0000 </r>
       <r>   12.9795    0.0000 </r>
       <r>   28.3614    0.0000 </r>
       <r>   13.6473    0.0000 </r>
       <r>   29.4931    0.0000 </r>
       <r>   15.5160    0.0000 </r>
       <r>   30.9789    0.0000 </r>
       <r>   31.3626    0.0000 </r>
       <r>   33.0728    0.0000 </r>
      </set>
      <set comment="kpoint 3">
       <r> -105.4660    1.0000 </r>
       <r>  -63.1604    1.0000 </r>
       <r>  -62.9577    1.0000 </r>
       <r>  -62.9524    1.0000 </r>
       <r>  -14.7965    1.0000 </r>
       <r>  -12.9198    1.0000 </r>
       <r>   -2.1445    1.0000 </r>
       <r>    0.0503    1.0000 </r>
       <r>    1.2255    1.0000 </r>
       <r>    1.6230    1.0000 </r>
       <r>    2.5252    1.0000 </r>
       <r>    2.9409    1.0000 </r>
       <r>    3.0004    1.0000 </r>
       <r>    3.9455    1.0000 </r>
       <r>    4.2981    1.0000 </r>
       <r>    4.6141    1.0000 </r>
       <r>    4.7401    1.0000 </r>
       <r>    8.3386    0.0000 </r>
       <r>   13.1960    0.0000 </r>
       <r>   14.1730    0.0000 </r>
       <r>   17.1950    0.0000 </r>
       <r>   17.7022    0.0000 </r>
       <r>   18.6967    0.0000 </r>
       <r>   19.4436    0.0000 </r>
       <r>   21.6841    0.0000 </r>
       <r>   22.9912    0.0000 </r>
       <r>   14.1289    0.0000 </r>
       <r>   23.4485    0.0000 </r>
       <r>   25.1754    0.0000 </r>
       <r>   27.2649    0.0000 </r>
       <r>   27.8378    0.0000 </r>
       <r>   29.5157    0.0000 </r>
       <r>   31.3118    0.0000 </r>
       <r>   32.0003    0.0000 </r>
       <r>   32.0885    0.0000 </r>
       <r>   34.2016    0.0000 </r>
      </set>
      <set comment="kpoint 4">
       <r> -105.4653    1.0000 </r>
       <r>  -63.1596    1.0000 </r>
       <r>  -62.9643    1.0000 </r>
       <r>  -62.9540    1.0000 </r>
       <r>  -14.2930    1.0000 </r>
       <r>  -12.7968    1.0000 </r>
       <r>   -1.8396    1.0000 </r>
       <r>   -1.0916    1.0000 </r>
       <r>    0.4899    1.0000 </r>
       <r>    1.3286    1.0000 </r>
       <r>    2.3403    1.0000 </r>
       <r>    2.8282    1.0000 </r>
       <r>    3.1858    1.0000 </r>
       <r>    4.2469    1.0000 </r>
       <r>    4.4565    1.0000 </r>
       <r>    4.5412    1.0000 </r>
       <r>    4.6774    1.0000 </r>
       <r>    8.5745    0.0000 </r>
       <r>   13.6215    0.0000 </r>
       <r>   14.4222    0.0000 </r>
       <r>   16.4237    0.0000 </r>
       <r>   16.8622    0.0000 </r>
       <r>   17.8586    0.0000 </r>
       <r>   18.2142    0.0000 </r>
       <r>   20.7325    0.0000 </r>
       <r>   22.9765    0.0000 </r>
       <r>   23.8543    0.0000 </r>
       <r>   25.0221    0.0000 </r>
       <r>   26.5561    0.0000 </r>
       <r>   28.1884    0.0000 </r>
       <r>   30.0618    0.0000 </r>
       <r>   31.4097    0.0000 </r>
       <r>   32.9628    0.0000 </r>
       <r>   34.1757    0.0000 </r>
       <r>   35.2644    0.0000 </r>
       <r>   27.3664    0.0000 </r>
      </set>
      <set comment="kpoint 5">
       <r> -105.4648    1.0000 </r>
       <r>  -63.1590    1.0000 </r>
       <r>  -62.9697    1.0000 </r>
       <r>  -62.9551    1.0000 </r>
       <r>  -13.7718    1.0000 </r>
       <r>  -12.7684    1.0000 </r>
       <r>   -2.0033    1.0000 </r>
       <r>   -1.7655    1.0000 </r>
       <r>    0.2508    1.0000 </r>
       <r>    1.1092    1.0000 </r>
       <r>    2.0665    1.0000 </r>
       <r>    2.6890    1.0000 </r>
       <r>    3.1761    1.0000 </r>
       <r>    4.3408    1.0000 </r>
       <r>    4.6293    1.0000 </r>
       <r>    4.7457    1.0000 </r>
       <r>    5.1165    1.0000 </r>
       <r>    8.5233    0.0000 </r>
       <r>   12.6149    0.0000 </r>
       <r>   13.7509    0.0000 </r>
       <r>   16.6492    0.0000 </r>
       <r>   17.1365    0.0000 </r>
       <r>   17.9043    0.0000 </r>
       <r>   22.4101    0.0000 </r>
       <r>   22.9739    0.0000 </r>
       <r>   23.0310    0.0000 </r>
       <r>   25.8764    0.0000 </r>
       <r>   27.1052    0.0000 </r>
       <r>   28.8381    0.0000 </r>
       <r>   30.7307    0.0000 </r>
       <r>   31.3619    0.0000 </r>
       <r>   33.9756    0.0000 </r>
       <r>   18.1586    0.0000 </r>
       <r>   35.3085    0.0000 </r>
       <r>   31.5825    0.0000 </r>
       <r>   35.4871    0.0000 </r>
      </set>
      <set comment="kpoint 6">
       <r> -105.4646    1.0000 </r>
       <r>  -63.1587    1.0000 </r>
       <r>  -62.9719    1.0000 </r>
       <r>  -62.9556    1.0000 </r>
       <r>  -13.5041    1.0000 </r>
       <r>  -12.8145    1.0000 </r>
       <r>   -2.3011    1.0000 </r>
       <r>   -1.8688    1.0000 </r>
       <r>    0.2964    1.0000 </r>
       <r>    1.0291    1.0000 </r>
       <r>    1.9181    1.0000 </r>
       <r>    2.6360    1.0000 </r>
       <r>    3.1433    1.0000 </r>
       <r>    4.3014    1.0000 </r>
       <r>    4.6114    1.0000 </r>
       <r>    4.8261    1.0000 </r>
       <r>    5.7120    1.0000 </r>
       <r>    8.3180    0.0000 </r>
       <r>   11.8928    0.0000 </r>
       <r>   13.5608    0.0000 </r>
       <r>   16.8106    0.0000 </r>
       <r>   17.2929    0.0000 </r>
       <r>   18.2039    0.0000 </r>
       <r>   16.8530    0.0000 </r>
       <r>   21.3145    0.0000 </r>
       <r>   21.5760    0.0000 </r>
       <r>   22.9129    0.0000 </r>
       <r>   25.7047    0.0000 </r>
       <r>   11.5114    0.0000 </r>
       <r>   28.6394    0.0000 </r>
       <r>   28.8980    0.0000 </r>
       <r>   31.3360    0.0000 </r>
       <r>   31.4194    0.0000 </r>
       <r>   33.0036    0.0000 </r>
       <r>   33.0566    0.0000 </r>
       <r>   35.7258    0.0000 </r>
      </set>
      <set comment="kpoint 7">
       <r> -105.4666    1.0000 </r>
       <r>  -63.1612    1.0000 </r>
       <r>  -62.9526    1.0000 </r>
       <r>  -62.9511    1.0000 </r>
       <r>  -15.1417    1.0000 </r>
       <r>  -13.0484    1.0000 </r>
       <r>   -2.4396    1.0000 </r>
       <r>    1.1721    1.0000 </r>
       <r>    1.7800    1.0000 </r>
       <r>    1.9170    1.0000 </r>
       <r>    2.4173    1.0000 </r>
       <r>    2.9988    1.0000 </r>
       <r>    3.0676    1.0000 </r>
       <r>    3.9913    1.0000 </r>
       <r>    4.1046    1.0000 </r>
       <r>    4.7315    1.0000 </r>
       <r>    4.8391    1.0000 </r>
       <r>    8.0157    0.0000 </r>
       <r>   12.2926    0.0000 </r>
       <r>   13.4064    0.0000 </r>
       <r>   17.5478    0.0000 </r>
       <r>   18.8976    0.0000 </r>
       <r>   19.8947    0.0000 </r>
       <r>   17.1504    0.0000 </r>
       <r>   21.3610    0.0000 </r>
       <r>   24.0307    0.0000 </r>
       <r>   24.3014    0.0000 </r>
       <r>   25.4871    0.0000 </r>
       <r>   27.0316    0.0000 </r>
       <r>   28.1662    0.0000 </r>
       <r>   28.7526    0.0000 </r>
       <r>   14.8914    0.0000 </r>
       <r>   29.0065    0.0000 </r>
       <r>   31.5227    0.0000 </r>
       <r>   31.8227    0.0000 </r>
       <r>   33.4675    0.0000 </r>
      </set>
      <set comment="kpoint 8">
       <r> -105.4662    1.0000 </r>
       <r>  -63.1606    1.0000 </r>
       <r>  -62.9558    1.0000 </r>
       <r>  -62.9521    1.0000 </r>
       <r>  -14.9025    1.0000 </r>
       <r>  -12.9678    1.0000 </r>
       <r>   -2.1905    1.0000 </r>
       <r>    0.4313    1.0000 </r>
       <r>    1.2227    1.0000 </r>
       <r>    1.8718    1.0000 </r>
       <r>    2.4750    1.0000 </r>
       <r>    2.8359    1.0000 </r>
       <r>    3.0111    1.0000 </r>
       <r>    3.9253    1.0000 </r>
       <r>    4.2553    1.0000 </r>
       <r>    4.6320    1.0000 </r>
       <r>    4.8078    1.0000 </r>
       <r>    8.3211    0.0000 </r>
       <r>   12.9174    0.0000 </r>
       <r>   13.9650    0.0000 </r>
       <r>   17.3838    0.0000 </r>
       <r>   18.0000    0.0000 </r>
       <r>   18.9946    0.0000 </r>
       <r>   18.6503    0.0000 </r>
       <r>   21.5524    0.0000 </r>
       <r>   22.5728    0.0000 </r>
       <r>   23.9139    0.0000 </r>
       <r>   26.0733    0.0000 </r>
       <r>   12.7942    0.0000 </r>
       <r>   26.7669    0.0000 </r>
       <r>   28.2460    0.0000 </r>
       <r>   29.6582    0.0000 </r>
       <r>   31.0748    0.0000 </r>
       <r>   31.6145    0.0000 </r>
       <r>   32.0478    0.0000 </r>
       <r>   32.9251    0.0000 </r>
      </set>
      <set comment="kpoint 9">
       <r> -105.4656    1.0000 </r>
       <r>  -63.1598    1.0000 </r>
       <r>  -62.9617    1.0000 </r>
       <r>  -62.9542    1.0000 </r>
       <r>  -14.4720    1.0000 </r>
       <r>  -12.8472    1.0000 </r>
       <r>   -1.8561    1.0000 </r>
       <r>   -0.5477    1.0000 </r>
       <r>    0.4867    1.0000 </r>
       <r>    1.5219    1.0000 </r>
       <r>    2.3571    1.0000 </r>
       <r>    2.6242    1.0000 </r>
       <r>    3.2975    1.0000 </r>
       <r>    3.9029    1.0000 </r>
       <r>    4.5037    1.0000 </r>
       <r>    4.5481    1.0000 </r>
       <r>    4.7172    1.0000 </r>
       <r>    8.5941    0.0000 </r>
       <r>   13.7298    0.0000 </r>
       <r>   14.8892    0.0000 </r>
       <r>   16.6651    0.0000 </r>
       <r>   16.8163    0.0000 </r>
       <r>   18.3592    0.0000 </r>
       <r>   18.6789    0.0000 </r>
       <r>   22.5860    0.0000 </r>
       <r>   24.1788    0.0000 </r>
       <r>   25.6724    0.0000 </r>
       <r>   26.9014    0.0000 </r>
       <r>   28.1666    0.0000 </r>
       <r>   29.9548    0.0000 </r>
       <r>   17.6665    0.0000 </r>
       <r>   32.0077    0.0000 </r>
       <r>   32.2673    0.0000 </r>
       <r>   33.3594    0.0000 </r>
       <r>   34.8100    0.0000 </r>
       <r>   35.2016    0.0000 </r>
      </set>
      <set comment="kpoint 10">
       <r> -105.4650    1.0000 </r>
       <r>  -63.1591    1.0000 </r>
       <r>  -62.9672    1.0000 </r>
       <r>  -62.9559    1.0000 </r>
       <r>  -13.9490    1.0000 </r>
       <r>  -12.7723    1.0000 </r>
       <r>   -1.7253    1.0000 </r>
       <r>   -1.4850    1.0000 </r>
       <r>    0.1682    1.0000 </r>
       <r>    1.0387    1.0000 </r>
       <r>    2.1591    1.0000 </r>
       <r>    2.4173    1.0000 </r>
       <r>    3.4002    1.0000 </r>
       <r>    4.3124    1.0000 </r>
       <r>    4.4106    1.0000 </r>
       <r>    4.6323    1.0000 </r>
       <r>    4.9913    1.0000 </r>
       <r>    8.6632    0.0000 </r>
       <r>   13.6891    0.0000 </r>
       <r>   14.3604    0.0000 </r>
       <r>   16.5487    0.0000 </r>
       <r>   16.7885    0.0000 </r>
       <r>   17.7436    0.0000 </r>
       <r>   18.4509    0.0000 </r>
       <r>   22.8020    0.0000 </r>
       <r>   15.5215    0.0000 </r>
       <r>   22.2797    0.0000 </r>
       <r>   26.1014    0.0000 </r>
       <r>   27.4229    0.0000 </r>
       <r>   27.4991    0.0000 </r>
       <r>   13.4553    0.0000 </r>
       <r>   30.4443    0.0000 </r>
       <r>   32.4142    0.0000 </r>
       <r>   32.8710    0.0000 </r>
       <r>   34.5293    0.0000 </r>
       <r>   35.3328    0.0000 </r>
      </set>
      <set comment="kpoint 11">
       <r> -105.4646    1.0000 </r>
       <r>  -63.1587    1.0000 </r>
       <r>  -62.9707    1.0000 </r>
       <r>  -62.9571    1.0000 </r>
       <r>  -13.5214    1.0000 </r>
       <r>  -12.8021    1.0000 </r>
       <r>   -2.1178    1.0000 </r>
       <r>   -1.7644    1.0000 </r>
       <r>    0.3070    1.0000 </r>
       <r>    0.6371    1.0000 </r>
       <r>    2.0441    1.0000 </r>
       <r>    2.2737    1.0000 </r>
       <r>    3.3408    1.0000 </r>
       <r>    4.3347    1.0000 </r>
       <r>    4.5796    1.0000 </r>
       <r>    4.6581    1.0000 </r>
       <r>    5.6184    1.0000 </r>
       <r>    8.5982    0.0000 </r>
       <r>   12.3627    0.0000 </r>
       <r>   14.0752    0.0000 </r>
       <r>   16.9792    0.0000 </r>
       <r>   17.2467    0.0000 </r>
       <r>   17.7654    0.0000 </r>
       <r>   18.2988    0.0000 </r>
       <r>   22.8014    0.0000 </r>
       <r>   23.0553    0.0000 </r>
       <r>   26.9770    0.0000 </r>
       <r>   27.4781    0.0000 </r>
       <r>   27.6799    0.0000 </r>
       <r>   31.0801    0.0000 </r>
       <r>   32.7626    0.0000 </r>
       <r>   33.1966    0.0000 </r>
       <r>   33.7612    0.0000 </r>
       <r>   23.3309    0.0000 </r>
       <r>   35.4663    0.0000 </r>
       <r>   20.5579    0.0000 </r>
      </set>
      <set comment="kpoint 12">
       <r> -105.4646    1.0000 </r>
       <r>  -63.1587    1.0000 </r>
       <r>  -62.9708    1.0000 </r>
       <r>  -62.9570    1.0000 </r>
       <r>  -13.5346    1.0000 </r>
       <r>  -12.7855    1.0000 </r>
       <r>   -2.1413    1.0000 </r>
       <r>   -1.7542    1.0000 </r>
       <r>    0.2253    1.0000 </r>
       <r>    0.7030    1.0000 </r>
       <r>    2.0651    1.0000 </r>
       <r>    2.3131    1.0000 </r>
       <r>    3.3360    1.0000 </r>
       <r>    4.3278    1.0000 </r>
       <r>    4.5819    1.0000 </r>
       <r>    4.6500    1.0000 </r>
       <r>    5.5396    1.0000 </r>
       <r>    8.7592    0.0000 </r>
       <r>   12.2609    0.0000 </r>
       <r>   14.0997    0.0000 </r>
       <r>   16.7908    0.0000 </r>
       <r>   17.1553    0.0000 </r>
       <r>   17.8541    0.0000 </r>
       <r>   18.4010    0.0000 </r>
       <r>   22.5470    0.0000 </r>
       <r>   23.1606    0.0000 </r>
       <r>   26.9522    0.0000 </r>
       <r>   27.1102    0.0000 </r>
       <r>   28.1182    0.0000 </r>
       <r>   31.1966    0.0000 </r>
       <r>   32.6566    0.0000 </r>
       <r>   33.0316    0.0000 </r>
       <r>   34.1441    0.0000 </r>
       <r>   35.4489    0.0000 </r>
       <r>   28.5779    0.0000 </r>
       <r>   45.0371    0.0000 </r>
      </set>
      <set comment="kpoint 13">
       <r> -105.4650    1.0000 </r>
       <r>  -63.1590    1.0000 </r>
       <r>  -62.9673    1.0000 </r>
       <r>  -62.9558    1.0000 </r>
       <r>  -13.9680    1.0000 </r>
       <r>  -12.7449    1.0000 </r>
       <r>   -1.8326    1.0000 </r>
       <r>   -1.4274    1.0000 </r>
       <r>    0.0979    1.0000 </r>
       <r>    1.0879    1.0000 </r>
       <r>    2.2262    1.0000 </r>
       <r>    2.5008    1.0000 </r>
       <r>    3.3825    1.0000 </r>
       <r>    4.2948    1.0000 </r>
       <r>    4.3831    1.0000 </r>
       <r>    4.6312    1.0000 </r>
       <r>    4.9328    1.0000 </r>
       <r>    8.8084    0.0000 </r>
       <r>   13.5563    0.0000 </r>
       <r>   14.3917    0.0000 </r>
       <r>   16.3100    0.0000 </r>
       <r>   16.8091    0.0000 </r>
       <r>   17.7332    0.0000 </r>
       <r>   18.5861    0.0000 </r>
       <r>   22.4841    0.0000 </r>
       <r>   23.5525    0.0000 </r>
       <r>   25.8181    0.0000 </r>
       <r>   27.4600    0.0000 </r>
       <r>   12.6133    0.0000 </r>
       <r>   27.9275    0.0000 </r>
       <r>   30.7323    0.0000 </r>
       <r>   32.0526    0.0000 </r>
       <r>   33.1740    0.0000 </r>
       <r>   34.7678    0.0000 </r>
       <r>   35.6942    0.0000 </r>
       <r>   44.8727    0.0000 </r>
      </set>
      <set comment="kpoint 14">
       <r> -105.4656    1.0000 </r>
       <r>  -63.1597    1.0000 </r>
       <r>  -62.9615    1.0000 </r>
       <r>  -62.9541    1.0000 </r>
       <r>  -14.4871    1.0000 </r>
       <r>  -12.8221    1.0000 </r>
       <r>   -1.9549    1.0000 </r>
       <r>   -0.5200    1.0000 </r>
       <r>    0.4552    1.0000 </r>
       <r>    1.5342    1.0000 </r>
       <r>    2.4971    1.0000 </r>
       <r>    2.6725    1.0000 </r>
       <r>    3.2633    1.0000 </r>
       <r>    3.9032    1.0000 </r>
       <r>    4.4964    1.0000 </r>
       <r>    4.5306    1.0000 </r>
       <r>    4.7052    1.0000 </r>
       <r>    8.5729    0.0000 </r>
       <r>   13.9633    0.0000 </r>
       <r>   14.4812    0.0000 </r>
       <r>   16.7859    0.0000 </r>
       <r>   16.9810    0.0000 </r>
       <r>   17.9923    0.0000 </r>
       <r>   18.9282    0.0000 </r>
       <r>   21.3410    0.0000 </r>
       <r>   22.3332    0.0000 </r>
       <r>   23.9204    0.0000 </r>
       <r>   25.3283    0.0000 </r>
       <r>   27.2769    0.0000 </r>
       <r>   28.0407    0.0000 </r>
       <r>   30.5399    0.0000 </r>
       <r>   31.6569    0.0000 </r>
       <r>   32.5578    0.0000 </r>
       <r>   33.5840    0.0000 </r>
       <r>   34.6943    0.0000 </r>
       <r>   42.0629    0.0000 </r>
      </set>
      <set comment="kpoint 15">
       <r> -105.4662    1.0000 </r>
       <r>  -63.1606    1.0000 </r>
       <r>  -62.9558    1.0000 </r>
       <r>  -62.9522    1.0000 </r>
       <r>  -14.9120    1.0000 </r>
       <r>  -12.9506    1.0000 </r>
       <r>   -2.2642    1.0000 </r>
       <r>    0.4575    1.0000 </r>
       <r>    1.2145    1.0000 </r>
       <r>    1.8507    1.0000 </r>
       <r>    2.5909    1.0000 </r>
       <r>    2.9194    1.0000 </r>
       <r>    2.9607    1.0000 </r>
       <r>    3.9268    1.0000 </r>
       <r>    4.2540    1.0000 </r>
       <r>    4.6393    1.0000 </r>
       <r>    4.7713    1.0000 </r>
       <r>    8.2321    0.0000 </r>
       <r>   13.0484    0.0000 </r>
       <r>   13.9017    0.0000 </r>
       <r>   17.3701    0.0000 </r>
       <r>   18.0194    0.0000 </r>
       <r>   18.9280    0.0000 </r>
       <r>   18.8728    0.0000 </r>
       <r>   21.5816    0.0000 </r>
       <r>   15.6616    0.0000 </r>
       <r>   22.5972    0.0000 </r>
       <r>   23.9070    0.0000 </r>
       <r>   26.4325    0.0000 </r>
       <r>   26.4895    0.0000 </r>
       <r>   28.0569    0.0000 </r>
       <r>   29.5595    0.0000 </r>
       <r>   31.2906    0.0000 </r>
       <r>   31.4626    0.0000 </r>
       <r>   32.3109    0.0000 </r>
       <r>   32.7424    0.0000 </r>
      </set>
      <set comment="kpoint 16">
       <r> -105.4660    1.0000 </r>
       <r>  -63.1602    1.0000 </r>
       <r>  -62.9576    1.0000 </r>
       <r>  -62.9523    1.0000 </r>
       <r>  -14.7838    1.0000 </r>
       <r>  -12.9425    1.0000 </r>
       <r>   -2.0461    1.0000 </r>
       <r>    0.0593    1.0000 </r>
       <r>    1.1256    1.0000 </r>
       <r>    1.7243    1.0000 </r>
       <r>    2.4067    1.0000 </r>
       <r>    2.7792    1.0000 </r>
       <r>    3.0489    1.0000 </r>
       <r>    3.9574    1.0000 </r>
       <r>    4.2959    1.0000 </r>
       <r>    4.5327    1.0000 </r>
       <r>    4.8816    1.0000 </r>
       <r>    8.4997    0.0000 </r>
       <r>   13.0579    0.0000 </r>
       <r>   13.9890    0.0000 </r>
       <r>   17.3663    0.0000 </r>
       <r>   17.7762    0.0000 </r>
       <r>   18.4106    0.0000 </r>
       <r>   15.9941    0.0000 </r>
       <r>   22.1929    0.0000 </r>
       <r>   22.6271    0.0000 </r>
       <r>   22.7538    0.0000 </r>
       <r>   24.3762    0.0000 </r>
       <r>   26.7678    0.0000 </r>
       <r>   29.1434    0.0000 </r>
       <r>   30.8378    0.0000 </r>
       <r>   31.3565    0.0000 </r>
       <r>   32.2223    0.0000 </r>
       <r>   32.6716    0.0000 </r>
       <r>   33.5099    0.0000 </r>
       <r>   43.5931    0.0000 </r>
      </set>
      <set comment="kpoint 17">
       <r> -105.4656    1.0000 </r>
       <r>  -63.1596    1.0000 </r>
       <r>  -62.9615    1.0000 </r>
       <r>  -62.9539    1.0000 </r>
       <r>  -14.4619    1.0000 </r>
       <r>  -12.8637    1.0000 </r>
       <r>   -1.7977    1.0000 </r>
       <r>   -0.4955    1.0000 </r>
       <r>    0.4040    1.0000 </r>
       <r>    1.6318    1.0000 </r>
       <r>    2.2658    1.0000 </r>
       <r>    2.4709    1.0000 </r>
       <r>    3.3009    1.0000 </r>
       <r>    3.9234    1.0000 </r>
       <r>    4.4229    1.0000 </r>
       <r>    4.5491    1.0000 </r>
       <r>    4.8409    1.0000 </r>
       <r>    8.7345    0.0000 </r>
       <r>   13.6244    0.0000 </r>
       <r>   14.5590    0.0000 </r>
       <r>   17.0440    0.0000 </r>
       <r>   17.1300    0.0000 </r>
       <r>   17.6256    0.0000 </r>
       <r>   19.1425    0.0000 </r>
       <r>   21.7092    0.0000 </r>
       <r>   22.0921    0.0000 </r>
       <r>   23.7607    0.0000 </r>
       <r>   14.1493    0.0000 </r>
       <r>   24.8666    0.0000 </r>
       <r>   27.7702    0.0000 </r>
       <r>   28.5994    0.0000 </r>
       <r>   30.9588    0.0000 </r>
       <r>   31.5146    0.0000 </r>
       <r>   32.7770    0.0000 </r>
       <r>   33.7452    0.0000 </r>
       <r>   34.0129    0.0000 </r>
      </set>
      <set comment="kpoint 18">
       <r> -105.4651    1.0000 </r>
       <r>  -63.1593    1.0000 </r>
       <r>  -62.9654    1.0000 </r>
       <r>  -62.9569    1.0000 </r>
       <r>  -14.0053    1.0000 </r>
       <r>  -12.7902    1.0000 </r>
       <r>   -1.6630    1.0000 </r>
       <r>   -0.9716    1.0000 </r>
       <r>   -0.2380    1.0000 </r>
       <r>    1.2897    1.0000 </r>
       <r>    1.8602    1.0000 </r>
       <r>    2.2256    1.0000 </r>
       <r>    3.7660    1.0000 </r>
       <r>    3.8084    1.0000 </r>
       <r>    4.3539    1.0000 </r>
       <r>    4.7273    1.0000 </r>
       <r>    5.0153    1.0000 </r>
       <r>    8.8978    0.0000 </r>
       <r>   14.4760    0.0000 </r>
       <r>   15.4378    0.0000 </r>
       <r>   15.6728    0.0000 </r>
       <r>   16.6106    0.0000 </r>
       <r>   17.1666    0.0000 </r>
       <r>   18.2677    0.0000 </r>
       <r>   17.5514    0.0000 </r>
       <r>   21.6275    0.0000 </r>
       <r>   22.3118    0.0000 </r>
       <r>   24.2894    0.0000 </r>
       <r>   25.7370    0.0000 </r>
       <r>   27.4543    0.0000 </r>
       <r>   29.9121    0.0000 </r>
       <r>   30.0082    0.0000 </r>
       <r>   31.9577    0.0000 </r>
       <r>   33.6123    0.0000 </r>
       <r>   33.8960    0.0000 </r>
       <r>   35.1350    0.0000 </r>
      </set>
      <set comment="kpoint 19">
       <r> -105.4646    1.0000 </r>
       <r>  -63.1587    1.0000 </r>
       <r>  -62.9684    1.0000 </r>
       <r>  -62.9596    1.0000 </r>
       <r>  -13.5395    1.0000 </r>
       <r>  -12.7942    1.0000 </r>
       <r>   -1.7177    1.0000 </r>
       <r>   -1.5148    1.0000 </r>
       <r>   -0.2648    1.0000 </r>
       <r>    0.7089    1.0000 </r>
       <r>    1.6453    1.0000 </r>
       <r>    2.0725    1.0000 </r>
       <r>    3.6880    1.0000 </r>
       <r>    4.2079    1.0000 </r>
       <r>    4.3491    1.0000 </r>
       <r>    4.6052    1.0000 </r>
       <r>    5.5394    1.0000 </r>
       <r>    9.1141    0.0000 </r>
       <r>   13.4539    0.0000 </r>
       <r>   14.9951    0.0000 </r>
       <r>   16.1069    0.0000 </r>
       <r>   16.9751    0.0000 </r>
       <r>   17.1818    0.0000 </r>
       <r>   17.8039    0.0000 </r>
       <r>   18.3049    0.0000 </r>
       <r>   22.6638    0.0000 </r>
       <r>   24.4299    0.0000 </r>
       <r>   25.7416    0.0000 </r>
       <r>   26.9180    0.0000 </r>
       <r>   29.4420    0.0000 </r>
       <r>   31.0490    0.0000 </r>
       <r>   32.8138    0.0000 </r>
       <r>   21.7631    0.0000 </r>
       <r>   33.7212    0.0000 </r>
       <r>   34.3532    0.0000 </r>
       <r>   35.7245    0.0000 </r>
      </set>
      <set comment="kpoint 20">
       <r> -105.4645    1.0000 </r>
       <r>  -63.1585    1.0000 </r>
       <r>  -62.9694    1.0000 </r>
       <r>  -62.9607    1.0000 </r>
       <r>  -13.3144    1.0000 </r>
       <r>  -12.8305    1.0000 </r>
       <r>   -1.9260    1.0000 </r>
       <r>   -1.5660    1.0000 </r>
       <r>   -0.2861    1.0000 </r>
       <r>    0.4893    1.0000 </r>
       <r>    1.5303    1.0000 </r>
       <r>    2.1331    1.0000 </r>
       <r>    3.6401    1.0000 </r>
       <r>    4.3468    1.0000 </r>
       <r>    4.4040    1.0000 </r>
       <r>    4.5191    1.0000 </r>
       <r>    5.7152    1.0000 </r>
       <r>    9.5023    0.0000 </r>
       <r>   12.4126    0.0000 </r>
       <r>   15.1312    0.0000 </r>
       <r>   15.6907    0.0000 </r>
       <r>   17.2327    0.0000 </r>
       <r>   17.4519    0.0000 </r>
       <r>   18.0790    0.0000 </r>
       <r>   18.6070    0.0000 </r>
       <r>   23.0288    0.0000 </r>
       <r>   24.1883    0.0000 </r>
       <r>   25.3963    0.0000 </r>
       <r>   26.5621    0.0000 </r>
       <r>   29.6941    0.0000 </r>
       <r>   31.3535    0.0000 </r>
       <r>   33.0474    0.0000 </r>
       <r>   33.6585    0.0000 </r>
       <r>   34.0563    0.0000 </r>
       <r>   35.8387    0.0000 </r>
       <r>   26.3266    0.0000 </r>
      </set>
      <set comment="kpoint 21">
       <r> -105.4646    1.0000 </r>
       <r>  -63.1586    1.0000 </r>
       <r>  -62.9684    1.0000 </r>
       <r>  -62.9595    1.0000 </r>
       <r>  -13.5793    1.0000 </r>
       <r>  -12.7433    1.0000 </r>
       <r>   -1.8595    1.0000 </r>
       <r>   -1.3767    1.0000 </r>
       <r>   -0.4674    1.0000 </r>
       <r>    0.8734    1.0000 </r>
       <r>    1.5079    1.0000 </r>
       <r>    2.3683    1.0000 </r>
       <r>    3.6766    1.0000 </r>
       <r>    4.1913    1.0000 </r>
       <r>    4.3883    1.0000 </r>
       <r>    4.5218    1.0000 </r>
       <r>    5.3973    1.0000 </r>
       <r>    9.3805    0.0000 </r>
       <r>   13.3425    0.0000 </r>
       <r>   15.1713    0.0000 </r>
       <r>   15.5485    0.0000 </r>
       <r>   16.5507    0.0000 </r>
       <r>   17.4704    0.0000 </r>
       <r>   18.0912    0.0000 </r>
       <r>   22.8282    0.0000 </r>
       <r>   23.7687    0.0000 </r>
       <r>   14.4037    0.0000 </r>
       <r>   25.7269    0.0000 </r>
       <r>   26.5001    0.0000 </r>
       <r>   30.1979    0.0000 </r>
       <r>   31.5837    0.0000 </r>
       <r>   32.4554    0.0000 </r>
       <r>   33.3856    0.0000 </r>
       <r>   34.9746    0.0000 </r>
       <r>   35.3136    0.0000 </r>
       <r>   47.9323    0.0000 </r>
      </set>
      <set comment="kpoint 22">
       <r> -105.4651    1.0000 </r>
       <r>  -63.1592    1.0000 </r>
       <r>  -62.9654    1.0000 </r>
       <r>  -62.9568    1.0000 </r>
       <r>  -14.0413    1.0000 </r>
       <r>  -12.7370    1.0000 </r>
       <r>   -1.8038    1.0000 </r>
       <r>   -0.9592    1.0000 </r>
       <r>   -0.3133    1.0000 </r>
       <r>    1.2984    1.0000 </r>
       <r>    1.9006    1.0000 </r>
       <r>    2.5664    1.0000 </r>
       <r>    3.7107    1.0000 </r>
       <r>    3.7984    1.0000 </r>
       <r>    4.4155    1.0000 </r>
       <r>    4.6156    1.0000 </r>
       <r>    4.9344    1.0000 </r>
       <r>    8.9527    0.0000 </r>
       <r>   14.7404    0.0000 </r>
       <r>   15.0845    0.0000 </r>
       <r>   15.6220    0.0000 </r>
       <r>   16.2352    0.0000 </r>
       <r>   17.4981    0.0000 </r>
       <r>   18.1279    0.0000 </r>
       <r>   22.2962    0.0000 </r>
       <r>   23.6973    0.0000 </r>
       <r>   26.0448    0.0000 </r>
       <r>   26.7176    0.0000 </r>
       <r>   29.8142    0.0000 </r>
       <r>   17.1926    0.0000 </r>
       <r>   31.0339    0.0000 </r>
       <r>   31.4829    0.0000 </r>
       <r>   18.6049    0.0000 </r>
       <r>   33.8408    0.0000 </r>
       <r>   34.3037    0.0000 </r>
       <r>   34.7750    0.0000 </r>
      </set>
      <set comment="kpoint 23">
       <r> -105.4654    1.0000 </r>
       <r>  -63.1596    1.0000 </r>
       <r>  -62.9644    1.0000 </r>
       <r>  -62.9541    1.0000 </r>
       <r>  -14.2630    1.0000 </r>
       <r>  -12.8442    1.0000 </r>
       <r>   -1.7426    1.0000 </r>
       <r>   -0.9413    1.0000 </r>
       <r>    0.3745    1.0000 </r>
       <r>    1.4978    1.0000 </r>
       <r>    2.1111    1.0000 </r>
       <r>    2.4680    1.0000 </r>
       <r>    3.2198    1.0000 </r>
       <r>    4.2606    1.0000 </r>
       <r>    4.3761    1.0000 </r>
       <r>    4.5379    1.0000 </r>
       <r>    4.9093    1.0000 </r>
       <r>    8.8688    0.0000 </r>
       <r>   13.4396    0.0000 </r>
       <r>   14.1624    0.0000 </r>
       <r>   16.5111    0.0000 </r>
       <r>   17.2304    0.0000 </r>
       <r>   17.6013    0.0000 </r>
       <r>   15.6928    0.0000 </r>
       <r>   21.7994    0.0000 </r>
       <r>   22.7370    0.0000 </r>
       <r>   23.6721    0.0000 </r>
       <r>   24.2105    0.0000 </r>
       <r>   26.8116    0.0000 </r>
       <r>   30.2087    0.0000 </r>
       <r>   30.7385    0.0000 </r>
       <r>   31.5256    0.0000 </r>
       <r>   32.6629    0.0000 </r>
       <r>   33.8002    0.0000 </r>
       <r>   35.6317    0.0000 </r>
       <r>   23.4019    0.0000 </r>
      </set>
      <set comment="kpoint 24">
       <r> -105.4650    1.0000 </r>
       <r>  -63.1590    1.0000 </r>
       <r>  -62.9672    1.0000 </r>
       <r>  -62.9558    1.0000 </r>
       <r>  -13.9177    1.0000 </r>
       <r>  -12.8171    1.0000 </r>
       <r>   -1.8532    1.0000 </r>
       <r>   -1.1074    1.0000 </r>
       <r>    0.0228    1.0000 </r>
       <r>    1.3250    1.0000 </r>
       <r>    1.8222    1.0000 </r>
       <r>    2.1843    1.0000 </r>
       <r>    3.3572    1.0000 </r>
       <r>    4.2124    1.0000 </r>
       <r>    4.3704    1.0000 </r>
       <r>    4.8599    1.0000 </r>
       <r>    5.0247    1.0000 </r>
       <r>    8.9809    0.0000 </r>
       <r>   13.6217    0.0000 </r>
       <r>   14.5693    0.0000 </r>
       <r>   15.8243    0.0000 </r>
       <r>   16.9079    0.0000 </r>
       <r>   17.5386    0.0000 </r>
       <r>   18.9036    0.0000 </r>
       <r>   18.9064    0.0000 </r>
       <r>   21.7496    0.0000 </r>
       <r>   22.8200    0.0000 </r>
       <r>   24.2844    0.0000 </r>
       <r>   25.3145    0.0000 </r>
       <r>   27.8686    0.0000 </r>
       <r>   29.4913    0.0000 </r>
       <r>   30.7315    0.0000 </r>
       <r>   31.4442    0.0000 </r>
       <r>   32.8652    0.0000 </r>
       <r>   34.3225    0.0000 </r>
       <r>   35.3477    0.0000 </r>
      </set>
      <set comment="kpoint 25">
       <r> -105.4646    1.0000 </r>
       <r>  -63.1588    1.0000 </r>
       <r>  -62.9684    1.0000 </r>
       <r>  -62.9595    1.0000 </r>
       <r>  -13.5107    1.0000 </r>
       <r>  -12.8302    1.0000 </r>
       <r>   -1.8927    1.0000 </r>
       <r>   -1.1296    1.0000 </r>
       <r>   -0.4536    1.0000 </r>
       <r>    1.1391    1.0000 </r>
       <r>    1.2282    1.0000 </r>
       <r>    1.9575    1.0000 </r>
       <r>    3.6410    1.0000 </r>
       <r>    4.1936    1.0000 </r>
       <r>    4.2795    1.0000 </r>
       <r>    4.7374    1.0000 </r>
       <r>    5.5563    1.0000 </r>
       <r>    9.3397    0.0000 </r>
       <r>   13.4639    0.0000 </r>
       <r>   15.4623    0.0000 </r>
       <r>   15.6550    0.0000 </r>
       <r>   16.0363    0.0000 </r>
       <r>   17.4489    0.0000 </r>
       <r>   18.3625    0.0000 </r>
       <r>   18.6370    0.0000 </r>
       <r>   21.5472    0.0000 </r>
       <r>   22.4471    0.0000 </r>
       <r>   24.9581    0.0000 </r>
       <r>   25.7082    0.0000 </r>
       <r>   28.0929    0.0000 </r>
       <r>   29.6862    0.0000 </r>
       <r>   30.8070    0.0000 </r>
       <r>   31.9555    0.0000 </r>
       <r>   33.5176    0.0000 </r>
       <r>   34.0638    0.0000 </r>
       <r>   35.1920    0.0000 </r>
      </set>
      <set comment="kpoint 26">
       <r> -105.4644    1.0000 </r>
       <r>  -63.1585    1.0000 </r>
       <r>  -62.9675    1.0000 </r>
       <r>  -62.9634    1.0000 </r>
       <r>  -13.1687    1.0000 </r>
       <r>  -12.9140    1.0000 </r>
       <r>   -1.6673    1.0000 </r>
       <r>   -1.3131    1.0000 </r>
       <r>   -0.8157    1.0000 </r>
       <r>    0.5890    1.0000 </r>
       <r>    1.1378    1.0000 </r>
       <r>    1.9561    1.0000 </r>
       <r>    3.8931    1.0000 </r>
       <r>    4.1480    1.0000 </r>
       <r>    4.2852    1.0000 </r>
       <r>    4.5973    1.0000 </r>
       <r>    5.7625    1.0000 </r>
       <r>   10.3024    0.0000 </r>
       <r>   12.1728    0.0000 </r>
       <r>   14.8784    0.0000 </r>
       <r>   15.9258    0.0000 </r>
       <r>   16.9879    0.0000 </r>
       <r>   17.6731    0.0000 </r>
       <r>   18.0163    0.0000 </r>
       <r>   18.6075    0.0000 </r>
       <r>   21.3506    0.0000 </r>
       <r>   22.4490    0.0000 </r>
       <r>   24.4645    0.0000 </r>
       <r>   25.6417    0.0000 </r>
       <r>   26.5718    0.0000 </r>
       <r>   29.5707    0.0000 </r>
       <r>   32.3403    0.0000 </r>
       <r>   33.2102    0.0000 </r>
       <r>   33.6187    0.0000 </r>
       <r>   33.7829    0.0000 </r>
       <r>   35.6516    0.0000 </r>
      </set>
      <set comment="kpoint 27">
       <r> -105.4644    1.0000 </r>
       <r>  -63.1586    1.0000 </r>
       <r>  -62.9674    1.0000 </r>
       <r>  -62.9636    1.0000 </r>
       <r>  -13.2357    1.0000 </r>
       <r>  -12.8399    1.0000 </r>
       <r>   -1.7016    1.0000 </r>
       <r>   -1.1467    1.0000 </r>
       <r>   -1.0762    1.0000 </r>
       <r>    0.6975    1.0000 </r>
       <r>    1.0269    1.0000 </r>
       <r>    2.1624    1.0000 </r>
       <r>    3.9373    1.0000 </r>
       <r>    4.0992    1.0000 </r>
       <r>    4.3845    1.0000 </r>
       <r>    4.4739    1.0000 </r>
       <r>    5.6779    1.0000 </r>
       <r>   10.3410    0.0000 </r>
       <r>   12.3101    0.0000 </r>
       <r>   14.5591    0.0000 </r>
       <r>   15.8781    0.0000 </r>
       <r>   17.2800    0.0000 </r>
       <r>   17.5031    0.0000 </r>
       <r>   17.9881    0.0000 </r>
       <r>   18.2906    0.0000 </r>
       <r>   23.5280    0.0000 </r>
       <r>   23.7903    0.0000 </r>
       <r>   25.4670    0.0000 </r>
       <r>   25.4170    0.0000 </r>
       <r>   30.9733    0.0000 </r>
       <r>   31.6367    0.0000 </r>
       <r>   33.4518    0.0000 </r>
       <r>   33.6559    0.0000 </r>
       <r>   34.2292    0.0000 </r>
       <r>   35.1109    0.0000 </r>
       <r>   23.3263    0.0000 </r>
      </set>
      <set comment="kpoint 28">
       <r> -105.4648    1.0000 </r>
       <r>  -63.1591    1.0000 </r>
       <r>  -62.9699    1.0000 </r>
       <r>  -62.9553    1.0000 </r>
       <r>  -13.7067    1.0000 </r>
       <r>  -12.8555    1.0000 </r>
       <r>   -2.1916    1.0000 </r>
       <r>   -1.2823    1.0000 </r>
       <r>    0.2864    1.0000 </r>
       <r>    1.3244    1.0000 </r>
       <r>    1.6459    1.0000 </r>
       <r>    2.2380    1.0000 </r>
       <r>    3.1744    1.0000 </r>
       <r>    4.1271    1.0000 </r>
       <r>    4.7443    1.0000 </r>
       <r>    4.9204    1.0000 </r>
       <r>    5.2286    1.0000 </r>
       <r>    8.8720    0.0000 </r>
       <r>   13.0231    0.0000 </r>
       <r>   14.1360    0.0000 </r>
       <r>   15.0724    0.0000 </r>
       <r>   17.1813    0.0000 </r>
       <r>   17.9260    0.0000 </r>
       <r>   19.0272    0.0000 </r>
       <r>   18.2789    0.0000 </r>
       <r>   21.9915    0.0000 </r>
       <r>   23.1585    0.0000 </r>
       <r>   24.4986    0.0000 </r>
       <r>   26.1802    0.0000 </r>
       <r>   26.6008    0.0000 </r>
       <r>   29.9094    0.0000 </r>
       <r>   31.3995    0.0000 </r>
       <r>   31.4700    0.0000 </r>
       <r>   32.6462    0.0000 </r>
       <r>   32.7933    0.0000 </r>
       <r>   35.9779    0.0000 </r>
      </set>
      <set comment="kpoint 29">
       <r> -105.4646    1.0000 </r>
       <r>  -63.1589    1.0000 </r>
       <r>  -62.9707    1.0000 </r>
       <r>  -62.9569    1.0000 </r>
       <r>  -13.4336    1.0000 </r>
       <r>  -12.9088    1.0000 </r>
       <r>   -2.3051    1.0000 </r>
       <r>   -1.3053    1.0000 </r>
       <r>    0.1930    1.0000 </r>
       <r>    1.1751    1.0000 </r>
       <r>    1.3981    1.0000 </r>
       <r>    1.9946    1.0000 </r>
       <r>    3.2858    1.0000 </r>
       <r>    4.1082    1.0000 </r>
       <r>    4.6671    1.0000 </r>
       <r>    4.8671    1.0000 </r>
       <r>    5.6757    1.0000 </r>
       <r>    8.9959    0.0000 </r>
       <r>   12.8532    0.0000 </r>
       <r>   14.6327    0.0000 </r>
       <r>   14.9391    0.0000 </r>
       <r>   16.7824    0.0000 </r>
       <r>   17.9074    0.0000 </r>
       <r>   18.5873    0.0000 </r>
       <r>   18.9815    0.0000 </r>
       <r>   21.7721    0.0000 </r>
       <r>   22.9904    0.0000 </r>
       <r>   25.3538    0.0000 </r>
       <r>   26.6173    0.0000 </r>
       <r>   27.6593    0.0000 </r>
       <r>   29.4676    0.0000 </r>
       <r>   30.1633    0.0000 </r>
       <r>   31.7731    0.0000 </r>
       <r>   32.9236    0.0000 </r>
       <r>   33.5529    0.0000 </r>
       <r>   34.5784    0.0000 </r>
      </set>
      <set comment="kpoint 30">
       <r> -105.4645    1.0000 </r>
       <r>  -63.1587    1.0000 </r>
       <r>  -62.9695    1.0000 </r>
       <r>  -62.9607    1.0000 </r>
       <r>  -13.1969    1.0000 </r>
       <r>  -12.9619    1.0000 </r>
       <r>   -2.0833    1.0000 </r>
       <r>   -1.1249    1.0000 </r>
       <r>   -0.4845    1.0000 </r>
       <r>    0.9618    1.0000 </r>
       <r>    1.1492    1.0000 </r>
       <r>    1.8062    1.0000 </r>
       <r>    3.5890    1.0000 </r>
       <r>    4.1681    1.0000 </r>
       <r>    4.4279    1.0000 </r>
       <r>    4.7410    1.0000 </r>
       <r>    5.8048    1.0000 </r>
       <r>    9.7805    0.0000 </r>
       <r>   12.4080    0.0000 </r>
       <r>   15.4367    0.0000 </r>
       <r>   15.7612    0.0000 </r>
       <r>   15.8694    0.0000 </r>
       <r>   17.7933    0.0000 </r>
       <r>   18.2701    0.0000 </r>
       <r>   18.6423    0.0000 </r>
       <r>   21.6353    0.0000 </r>
       <r>   22.3492    0.0000 </r>
       <r>   24.6859    0.0000 </r>
       <r>   27.5297    0.0000 </r>
       <r>   27.5830    0.0000 </r>
       <r>   28.8167    0.0000 </r>
       <r>   30.5775    0.0000 </r>
       <r>   32.3811    0.0000 </r>
       <r>   33.3039    0.0000 </r>
       <r>   33.3402    0.0000 </r>
       <r>   35.4417    0.0000 </r>
      </set>
      <set comment="kpoint 31">
       <r> -105.4646    1.0000 </r>
       <r>  -63.1588    1.0000 </r>
       <r>  -62.9718    1.0000 </r>
       <r>  -62.9557    1.0000 </r>
       <r>  -13.3812    1.0000 </r>
       <r>  -12.9609    1.0000 </r>
       <r>   -2.4785    1.0000 </r>
       <r>   -1.4182    1.0000 </r>
       <r>    0.5497    1.0000 </r>
       <r>    1.2605    1.0000 </r>
       <r>    1.3037    1.0000 </r>
       <r>    2.1540    1.0000 </r>
       <r>    3.1359    1.0000 </r>
       <r>    4.0646    1.0000 </r>
       <r>    4.8261    1.0000 </r>
       <r>    4.9229    1.0000 </r>
       <r>    5.7966    1.0000 </r>
       <r>    8.6797    0.0000 </r>
       <r>   12.6976    0.0000 </r>
       <r>   14.3466    0.0000 </r>
       <r>   14.3542    0.0000 </r>
       <r>   17.0117    0.0000 </r>
       <r>   18.0512    0.0000 </r>
       <r>   19.0931    0.0000 </r>
       <r>   19.1557    0.0000 </r>
       <r>   22.0923    0.0000 </r>
       <r>   23.1743    0.0000 </r>
       <r>   25.6748    0.0000 </r>
       <r>   26.1274    0.0000 </r>
       <r>   27.2045    0.0000 </r>
       <r>   29.6446    0.0000 </r>
       <r>   31.4803    0.0000 </r>
       <r>   31.8273    0.0000 </r>
       <r>   31.8584    0.0000 </r>
       <r>   33.4884    0.0000 </r>
       <r>   34.4089    0.0000 </r>
      </set>
      <set comment="kpoint 32">
       <r> -105.4667    1.0000 </r>
       <r>  -63.1614    1.0000 </r>
       <r>  -62.9508    1.0000 </r>
       <r>  -62.9508    1.0000 </r>
       <r>  -15.2589    1.0000 </r>
       <r>  -13.1098    1.0000 </r>
       <r>   -2.5126    1.0000 </r>
       <r>    1.7314    1.0000 </r>
       <r>    2.0117    1.0000 </r>
       <r>    2.0117    1.0000 </r>
       <r>    2.0686    1.0000 </r>
       <r>    3.1512    1.0000 </r>
       <r>    3.1512    1.0000 </r>
       <r>    4.0295    1.0000 </r>
       <r>    4.0295    1.0000 </r>
       <r>    4.8403    1.0000 </r>
       <r>    4.8403    1.0000 </r>
       <r>    7.8919    0.0000 </r>
       <r>   11.8387    0.0000 </r>
       <r>   13.0770    0.0000 </r>
       <r>   17.6232    0.0000 </r>
       <r>   19.6615    0.0000 </r>
       <r>   19.6604    0.0000 </r>
       <r>   24.6678    0.0000 </r>
       <r>   25.7888    0.0000 </r>
       <r>   25.7738    0.0000 </r>
       <r>   27.2122    0.0000 </r>
       <r>   27.2122    0.0000 </r>
       <r>   27.3232    0.0000 </r>
       <r>   30.0221    0.0000 </r>
       <r>   30.4263    0.0000 </r>
       <r>   30.4328    0.0000 </r>
       <r>   17.5998    0.0000 </r>
       <r>   32.5773    0.0000 </r>
       <r>   21.0191    0.0000 </r>
       <r>   27.2325    0.0000 </r>
      </set>
      <set comment="kpoint 33">
       <r> -105.4665    1.0000 </r>
       <r>  -63.1611    1.0000 </r>
       <r>  -62.9525    1.0000 </r>
       <r>  -62.9511    1.0000 </r>
       <r>  -15.1296    1.0000 </r>
       <r>  -13.0713    1.0000 </r>
       <r>   -2.3367    1.0000 </r>
       <r>    1.0785    1.0000 </r>
       <r>    1.8913    1.0000 </r>
       <r>    1.8952    1.0000 </r>
       <r>    2.3183    1.0000 </r>
       <r>    2.8311    1.0000 </r>
       <r>    3.1277    1.0000 </r>
       <r>    3.9919    1.0000 </r>
       <r>    4.1034    1.0000 </r>
       <r>    4.8010    1.0000 </r>
       <r>    4.8134    1.0000 </r>
       <r>    8.1518    0.0000 </r>
       <r>   12.1668    0.0000 </r>
       <r>   13.4309    0.0000 </r>
       <r>   17.6168    0.0000 </r>
       <r>   18.8935    0.0000 </r>
       <r>   19.4029    0.0000 </r>
       <r>   17.6040    0.0000 </r>
       <r>   23.4797    0.0000 </r>
       <r>   25.1751    0.0000 </r>
       <r>   25.7516    0.0000 </r>
       <r>   27.3295    0.0000 </r>
       <r>   27.9188    0.0000 </r>
       <r>   28.5207    0.0000 </r>
       <r>   14.3705    0.0000 </r>
       <r>   29.3057    0.0000 </r>
       <r>   15.2731    0.0000 </r>
       <r>   30.3297    0.0000 </r>
       <r>   31.5559    0.0000 </r>
       <r>   33.0343    0.0000 </r>
      </set>
      <set comment="kpoint 34">
       <r> -105.4660    1.0000 </r>
       <r>  -63.1606    1.0000 </r>
       <r>  -62.9579    1.0000 </r>
       <r>  -62.9524    1.0000 </r>
       <r>  -14.7759    1.0000 </r>
       <r>  -12.9563    1.0000 </r>
       <r>   -1.9857    1.0000 </r>
       <r>   -0.0010    1.0000 </r>
       <r>    1.2744    1.0000 </r>
       <r>    1.6247    1.0000 </r>
       <r>    2.2786    1.0000 </r>
       <r>    2.8940    1.0000 </r>
       <r>    2.9984    1.0000 </r>
       <r>    3.9488    1.0000 </r>
       <r>    4.2971    1.0000 </r>
       <r>    4.6716    1.0000 </r>
       <r>    4.7409    1.0000 </r>
       <r>    8.4720    0.0000 </r>
       <r>   12.9596    0.0000 </r>
       <r>   14.4151    0.0000 </r>
       <r>   17.1336    0.0000 </r>
       <r>   17.6221    0.0000 </r>
       <r>   19.0633    0.0000 </r>
       <r>   19.0285    0.0000 </r>
       <r>   21.4826    0.0000 </r>
       <r>   23.0505    0.0000 </r>
       <r>   24.3571    0.0000 </r>
       <r>   25.2234    0.0000 </r>
       <r>   12.8188    0.0000 </r>
       <r>   27.4470    0.0000 </r>
       <r>   27.8197    0.0000 </r>
       <r>   28.8201    0.0000 </r>
       <r>   31.1934    0.0000 </r>
       <r>   31.8434    0.0000 </r>
       <r>   31.9290    0.0000 </r>
       <r>   34.4953    0.0000 </r>
      </set>
      <set comment="kpoint 35">
       <r> -105.4654    1.0000 </r>
       <r>  -63.1597    1.0000 </r>
       <r>  -62.9645    1.0000 </r>
[...]
       <r>  -13.2318    1.0000 </r>
       <r>   -1.2469    1.0000 </r>
       <r>    0.0037    1.0000 </r>
       <r>    1.8562    1.0000 </r>
       <r>    2.1546    1.0000 </r>
       <r>    2.1793    1.0000 </r>
       <r>    2.5320    1.0000 </r>
       <r>    2.6360    1.0000 </r>
       <r>    3.9893    1.0000 </r>
       <r>    4.1021    1.0000 </r>
       <r>    4.9278    1.0000 </r>
       <r>    5.0344    1.0000 </r>
       <r>    9.3386    0.0000 </r>
       <r>   10.9700    0.0000 </r>
       <r>   13.5266    0.0000 </r>
       <r>   17.9034    0.0000 </r>
       <r>   18.8584    0.0000 </r>
       <r>   19.8483    0.0000 </r>
       <r>   18.0948    0.0000 </r>
       <r>   22.3559    0.0000 </r>
       <r>   23.2164    0.0000 </r>
       <r>   23.8416    0.0000 </r>
       <r>   24.9555    0.0000 </r>
       <r>   27.4466    0.0000 </r>
       <r>   28.2711    0.0000 </r>
       <r>   28.9235    0.0000 </r>
       <r>   30.0661    0.0000 </r>
       <r>   30.2322    0.0000 </r>
       <r>   31.2887    0.0000 </r>
       <r>   32.2248    0.0000 </r>
       <r>   32.3612    0.0000 </r>
      </set>
      <set comment="kpoint 115">
       <r> -105.4661    1.0000 </r>
       <r>  -63.1604    1.0000 </r>
       <r>  -62.9560    1.0000 </r>
       <r>  -62.9520    1.0000 </r>
       <r>  -14.8048    1.0000 </r>
       <r>  -13.1376    1.0000 </r>
       <r>   -1.0766    1.0000 </r>
       <r>   -0.2769    1.0000 </r>
       <r>    1.3646    1.0000 </r>
       <r>    1.6029    1.0000 </r>
       <r>    2.1920    1.0000 </r>
       <r>    2.4046    1.0000 </r>
       <r>    2.7841    1.0000 </r>
       <r>    3.9143    1.0000 </r>
       <r>    4.2573    1.0000 </r>
       <r>    4.7999    1.0000 </r>
       <r>    4.9824    1.0000 </r>
       <r>    9.1953    0.0000 </r>
       <r>   11.8544    0.0000 </r>
       <r>   14.3435    0.0000 </r>
       <r>   17.2595    0.0000 </r>
       <r>   18.3272    0.0000 </r>
       <r>   18.9113    0.0000 </r>
       <r>   21.6790    0.0000 </r>
       <r>   22.6552    0.0000 </r>
       <r>   23.3999    0.0000 </r>
       <r>   26.5604    0.0000 </r>
       <r>   26.7989    0.0000 </r>
       <r>   28.7181    0.0000 </r>
       <r>   29.9543    0.0000 </r>
       <r>   30.7111    0.0000 </r>
       <r>   31.7492    0.0000 </r>
       <r>   32.3160    0.0000 </r>
       <r>   32.7389    0.0000 </r>
       <r>   31.2960    0.0000 </r>
       <r>   27.9077    0.0000 </r>
      </set>
      <set comment="kpoint 116">
       <r> -105.4667    1.0000 </r>
       <r>  -63.1609    1.0000 </r>
       <r>  -62.9502    1.0000 </r>
       <r>  -62.9502    1.0000 </r>
       <r>  -15.1623    1.0000 </r>
       <r>  -13.2886    1.0000 </r>
       <r>   -1.3037    1.0000 </r>
       <r>    0.0614    1.0000 </r>
       <r>    2.0812    1.0000 </r>
       <r>    2.3117    1.0000 </r>
       <r>    2.3117    1.0000 </r>
       <r>    2.6693    1.0000 </r>
       <r>    2.6693    1.0000 </r>
       <r>    4.0301    1.0000 </r>
       <r>    4.0301    1.0000 </r>
       <r>    5.0450    1.0000 </r>
       <r>    5.0450    1.0000 </r>
       <r>    9.4434    0.0000 </r>
       <r>   10.3884    0.0000 </r>
       <r>   13.0540    0.0000 </r>
       <r>   18.1101    0.0000 </r>
       <r>   19.1572    0.0000 </r>
       <r>   18.1788    0.0000 </r>
       <r>   20.9154    0.0000 </r>
       <r>   21.5897    0.0000 </r>
       <r>   13.8992    0.0000 </r>
       <r>   25.2917    0.0000 </r>
       <r>   25.2500    0.0000 </r>
       <r>   25.9441    0.0000 </r>
       <r>   26.2998    0.0000 </r>
       <r>   28.2737    0.0000 </r>
       <r>   28.2737    0.0000 </r>
       <r>   29.0460    0.0000 </r>
       <r>   29.0463    0.0000 </r>
       <r>   30.2121    0.0000 </r>
       <r>   31.5883    0.0000 </r>
      </set>
     </set>
    </set>
   </array>
  </eigenvalues>
  <separator name="orbital magnetization" >
   <v name="MAGDIPOLOUT">      0.00000000      0.00000000      0.00000000</v>
  </separator>
  <dos>
   <i name="efermi">      6.85516358 </i>
   <total>
    <array>
     <dimension dim="1">gridpoints</dimension>
     <dimension dim="2">spin</dimension>
     <field>energy</field>
     <field>total</field>
     <field>integrated</field>
     <set>
      <set comment="spin 1">
       <r>  -113.6361     0.0000     0.0000 </r>
       <r>  -113.0370     0.0000     0.0000 </r>
       <r>  -112.4380     0.0000     0.0000 </r>
       <r>  -111.8389     0.0000     0.0000 </r>
       <r>  -111.2398     0.0000     0.0000 </r>
       <r>  -110.6407     0.0000     0.0000 </r>
       <r>  -110.0416     0.0000     0.0000 </r>
       <r>  -109.4425     0.0000     0.0000 </r>
       <r>  -108.8434     0.0000     0.0000 </r>
       <r>  -108.2443     0.0000     0.0000 </r>
       <r>  -107.6453     0.0000     0.0000 </r>
       <r>  -107.0462     0.0000     0.0000 </r>
       <r>  -106.4471     0.0000     0.0000 </r>
       <r>  -105.8480     0.0113     0.0068 </r>
       <r>  -105.2489     3.1163     1.8737 </r>
       <r>  -104.6498     0.2108     2.0000 </r>
       <r>  -104.0507     0.0000     2.0000 </r>
       <r>  -103.4517     0.0000     2.0000 </r>
       <r>  -102.8526     0.0000     2.0000 </r>
       <r>  -102.2535     0.0000     2.0000 </r>
       <r>  -101.6544     0.0000     2.0000 </r>
       <r>  -101.0553     0.0000     2.0000 </r>
       <r>  -100.4562     0.0000     2.0000 </r>
       <r>   -99.8571     0.0000     2.0000 </r>
       <r>   -99.2580     0.0000     2.0000 </r>
       <r>   -98.6590     0.0000     2.0000 </r>
       <r>   -98.0599     0.0000     2.0000 </r>
       <r>   -97.4608     0.0000     2.0000 </r>
       <r>   -96.8617     0.0000     2.0000 </r>
       <r>   -96.2626     0.0000     2.0000 </r>
       <r>   -95.6635     0.0000     2.0000 </r>
       <r>   -95.0644     0.0000     2.0000 </r>
       <r>   -94.4654     0.0000     2.0000 </r>
       <r>   -93.8663     0.0000     2.0000 </r>
       <r>   -93.2672     0.0000     2.0000 </r>
       <r>   -92.6681     0.0000     2.0000 </r>
       <r>   -92.0690     0.0000     2.0000 </r>
       <r>   -91.4699     0.0000     2.0000 </r>
       <r>   -90.8708     0.0000     2.0000 </r>
       <r>   -90.2717     0.0000     2.0000 </r>
       <r>   -89.6727     0.0000     2.0000 </r>
       <r>   -89.0736     0.0000     2.0000 </r>
       <r>   -88.4745     0.0000     2.0000 </r>
       <r>   -87.8754     0.0000     2.0000 </r>
       <r>   -87.2763     0.0000     2.0000 </r>
       <r>   -86.6772     0.0000     2.0000 </r>
       <r>   -86.0781     0.0000     2.0000 </r>
       <r>   -85.4791     0.0000     2.0000 </r>
       <r>   -84.8800     0.0000     2.0000 </r>
       <r>   -84.2809     0.0000     2.0000 </r>
       <r>   -83.6818     0.0000     2.0000 </r>
       <r>   -83.0827     0.0000     2.0000 </r>
       <r>   -82.4836     0.0000     2.0000 </r>
       <r>   -81.8845     0.0000     2.0000 </r>
       <r>   -81.2854     0.0000     2.0000 </r>
       <r>   -80.6864     0.0000     2.0000 </r>
       <r>   -80.0873     0.0000     2.0000 </r>
       <r>   -79.4882     0.0000     2.0000 </r>
       <r>   -78.8891     0.0000     2.0000 </r>
       <r>   -78.2900     0.0000     2.0000 </r>
       <r>   -77.6909     0.0000     2.0000 </r>
       <r>   -77.0918     0.0000     2.0000 </r>
       <r>   -76.4928     0.0000     2.0000 </r>
       <r>   -75.8937     0.0000     2.0000 </r>
       <r>   -75.2946     0.0000     2.0000 </r>
       <r>   -74.6955     0.0000     2.0000 </r>
       <r>   -74.0964     0.0000     2.0000 </r>
       <r>   -73.4973     0.0000     2.0000 </r>
       <r>   -72.8982     0.0000     2.0000 </r>
       <r>   -72.2992     0.0000     2.0000 </r>
       <r>   -71.7001     0.0000     2.0000 </r>
       <r>   -71.1010     0.0000     2.0000 </r>
       <r>   -70.5019     0.0000     2.0000 </r>
       <r>   -69.9028     0.0000     2.0000 </r>
       <r>   -69.3037     0.0000     2.0000 </r>
       <r>   -68.7046     0.0000     2.0000 </r>
       <r>   -68.1055     0.0000     2.0000 </r>
       <r>   -67.5065     0.0000     2.0000 </r>
       <r>   -66.9074     0.0000     2.0000 </r>
       <r>   -66.3083     0.0000     2.0000 </r>
       <r>   -65.7092     0.0000     2.0000 </r>
       <r>   -65.1101     0.0000     2.0000 </r>
       <r>   -64.5110     0.0000     2.0000 </r>
       <r>   -63.9119     0.0000     2.0000 </r>
       <r>   -63.3129     0.5064     2.3034 </r>
       <r>   -62.7138     9.2347     7.8358 </r>
       <r>   -62.1147     0.2742     8.0000 </r>
       <r>   -61.5156     0.0000     8.0000 </r>
       <r>   -60.9165     0.0000     8.0000 </r>
       <r>   -60.3174     0.0000     8.0000 </r>
       <r>   -59.7183     0.0000     8.0000 </r>
       <r>   -59.1192     0.0000     8.0000 </r>
       <r>   -58.5202     0.0000     8.0000 </r>
       <r>   -57.9211     0.0000     8.0000 </r>
       <r>   -57.3220     0.0000     8.0000 </r>
       <r>   -56.7229     0.0000     8.0000 </r>
       <r>   -56.1238     0.0000     8.0000 </r>
       <r>   -55.5247     0.0000     8.0000 </r>
       <r>   -54.9256     0.0000     8.0000 </r>
       <r>   -54.3266     0.0000     8.0000 </r>
       <r>   -53.7275     0.0000     8.0000 </r>
       <r>   -53.1284     0.0000     8.0000 </r>
       <r>   -52.5293     0.0000     8.0000 </r>
       <r>   -51.9302     0.0000     8.0000 </r>
       <r>   -51.3311     0.0000     8.0000 </r>
       <r>   -50.7320     0.0000     8.0000 </r>
       <r>   -50.1329     0.0000     8.0000 </r>
       <r>   -49.5339     0.0000     8.0000 </r>
       <r>   -48.9348     0.0000     8.0000 </r>
       <r>   -48.3357     0.0000     8.0000 </r>
       <r>   -47.7366     0.0000     8.0000 </r>
       <r>   -47.1375     0.0000     8.0000 </r>
       <r>   -46.5384     0.0000     8.0000 </r>
       <r>   -45.9393     0.0000     8.0000 </r>
       <r>   -45.3403     0.0000     8.0000 </r>
       <r>   -44.7412     0.0000     8.0000 </r>
       <r>   -44.1421     0.0000     8.0000 </r>
       <r>   -43.5430     0.0000     8.0000 </r>
       <r>   -42.9439     0.0000     8.0000 </r>
       <r>   -42.3448     0.0000     8.0000 </r>
       <r>   -41.7457     0.0000     8.0000 </r>
       <r>   -41.1466     0.0000     8.0000 </r>
       <r>   -40.5476     0.0000     8.0000 </r>
       <r>   -39.9485     0.0000     8.0000 </r>
       <r>   -39.3494     0.0000     8.0000 </r>
       <r>   -38.7503     0.0000     8.0000 </r>
       <r>   -38.1512     0.0000     8.0000 </r>
       <r>   -37.5521     0.0000     8.0000 </r>
       <r>   -36.9530     0.0000     8.0000 </r>
       <r>   -36.3540     0.0000     8.0000 </r>
       <r>   -35.7549     0.0000     8.0000 </r>
       <r>   -35.1558     0.0000     8.0000 </r>
       <r>   -34.5567     0.0000     8.0000 </r>
       <r>   -33.9576     0.0000     8.0000 </r>
       <r>   -33.3585     0.0000     8.0000 </r>
       <r>   -32.7594     0.0000     8.0000 </r>
       <r>   -32.1603     0.0000     8.0000 </r>
       <r>   -31.5613     0.0000     8.0000 </r>
       <r>   -30.9622     0.0000     8.0000 </r>
       <r>   -30.3631     0.0000     8.0000 </r>
       <r>   -29.7640     0.0000     8.0000 </r>
       <r>   -29.1649     0.0000     8.0000 </r>
       <r>   -28.5658     0.0000     8.0000 </r>
       <r>   -27.9667     0.0000     8.0000 </r>
       <r>   -27.3677     0.0000     8.0000 </r>
       <r>   -26.7686     0.0000     8.0000 </r>
       <r>   -26.1695     0.0000     8.0000 </r>
       <r>   -25.5704     0.0000     8.0000 </r>
       <r>   -24.9713     0.0000     8.0000 </r>
       <r>   -24.3722     0.0000     8.0000 </r>
       <r>   -23.7731     0.0000     8.0000 </r>
       <r>   -23.1741     0.0000     8.0000 </r>
       <r>   -22.5750     0.0000     8.0000 </r>
       <r>   -21.9759     0.0000     8.0000 </r>
       <r>   -21.3768     0.0000     8.0000 </r>
       <r>   -20.7777     0.0000     8.0000 </r>
       <r>   -20.1786     0.0000     8.0000 </r>
       <r>   -19.5795     0.0000     8.0000 </r>
       <r>   -18.9804     0.0000     8.0000 </r>
       <r>   -18.3814     0.0000     8.0000 </r>
       <r>   -17.7823     0.0000     8.0000 </r>
       <r>   -17.1832     0.0000     8.0000 </r>
       <r>   -16.5841     0.0000     8.0000 </r>
       <r>   -15.9850     0.0000     8.0000 </r>
       <r>   -15.3859     0.0087     8.0052 </r>
       <r>   -14.7868     0.4421     8.2701 </r>
       <r>   -14.1878     0.7272     8.7058 </r>
       <r>   -13.5887     1.0593     9.3404 </r>
       <r>   -12.9896     2.0270    10.5547 </r>
       <r>   -12.3905     2.4088    11.9979 </r>
       <r>   -11.7914     0.0036    12.0000 </r>
       <r>   -11.1923     0.0000    12.0000 </r>
       <r>   -10.5932     0.0000    12.0000 </r>
       <r>    -9.9941     0.0000    12.0000 </r>
       <r>    -9.3951     0.0000    12.0000 </r>
       <r>    -8.7960     0.0000    12.0000 </r>
       <r>    -8.1969     0.0000    12.0000 </r>
       <r>    -7.5978     0.0000    12.0000 </r>
       <r>    -6.9987     0.0000    12.0000 </r>
       <r>    -6.3996     0.0000    12.0000 </r>
       <r>    -5.8005     0.0000    12.0000 </r>
       <r>    -5.2015     0.0000    12.0000 </r>
       <r>    -4.6024     0.0000    12.0000 </r>
       <r>    -4.0033     0.0000    12.0000 </r>
       <r>    -3.4042     0.0000    12.0000 </r>
       <r>    -2.8051     0.0010    12.0006 </r>
       <r>    -2.2060     0.5193    12.3117 </r>
       <r>    -1.6069     2.3774    13.7360 </r>
       <r>    -1.0078     2.4757    15.2192 </r>
       <r>    -0.4088     1.0878    15.8708 </r>
       <r>     0.1903     1.2821    16.6389 </r>
       <r>     0.7894     2.0712    17.8798 </r>
       <r>     1.3885     2.7546    19.5300 </r>
       <r>     1.9876     3.3308    21.5255 </r>
       <r>     2.5867     3.2913    23.4973 </r>
       <r>     3.1858     1.8801    24.6236 </r>
       <r>     3.7848     2.1888    25.9349 </r>
       <r>     4.3839     4.5951    28.6878 </r>
       <r>     4.9830     6.4910    32.5765 </r>
       <r>     5.5821     1.5314    33.4939 </r>
       <r>     6.1812     0.8440    33.9995 </r>
       <r>     6.7803     0.0008    34.0000 </r>
       <r>     7.3794     0.0000    34.0000 </r>
       <r>     7.9785     0.0319    34.0191 </r>
       <r>     8.5775     0.7192    34.4500 </r>
       <r>     9.1766     1.8290    35.5458 </r>
       <r>     9.7757     0.5166    35.8552 </r>
       <r>    10.3748     0.1763    35.9609 </r>
       <r>    10.9739     0.0921    36.0160 </r>
       <r>    11.5730     0.0818    36.0651 </r>
       <r>    12.1721     0.3305    36.2631 </r>
       <r>    12.7711     0.9514    36.8330 </r>
       <r>    13.3702     0.9957    37.4296 </r>
       <r>    13.9693     1.7196    38.4597 </r>
       <r>    14.5684     1.6993    39.4778 </r>
       <r>    15.1675     1.3210    40.2692 </r>
       <r>    15.7666     1.6197    41.2395 </r>
       <r>    16.3657     1.4520    42.1094 </r>
       <r>    16.9647     2.1296    43.3853 </r>
       <r>    17.5638     3.0330    45.2023 </r>
       <r>    18.1629     3.1704    47.1016 </r>
       <r>    18.7620     2.4106    48.5457 </r>
       <r>    19.3611     1.7201    49.5763 </r>
       <r>    19.9602     0.2643    49.7346 </r>
       <r>    20.5593     0.1039    49.7969 </r>
       <r>    21.1584     0.1646    49.8955 </r>
       <r>    21.7574     1.3861    50.7258 </r>
       <r>    22.3565     0.9245    51.2797 </r>
       <r>    22.9556     1.6586    52.2733 </r>
       <r>    23.5547     1.9249    53.4265 </r>
       <r>    24.1538     1.2217    54.1584 </r>
       <r>    24.7529     1.2369    54.8994 </r>
       <r>    25.3520     1.2403    55.6425 </r>
       <r>    25.9510     1.4615    56.5180 </r>
       <r>    26.5501     1.2853    57.2881 </r>
       <r>    27.1492     1.4603    58.1629 </r>
       <r>    27.7483     1.5217    59.0745 </r>
       <r>    28.3474     1.1980    59.7922 </r>
       <r>    28.9465     1.2783    60.5581 </r>
       <r>    29.5456     1.1198    61.2289 </r>
       <r>    30.1447     1.5362    62.1492 </r>
       <r>    30.7437     1.4351    63.0090 </r>
       <r>    31.3428     1.5894    63.9611 </r>
       <r>    31.9419     2.1861    65.2708 </r>
       <r>    32.5410     1.5971    66.2276 </r>
       <r>    33.1401     2.2237    67.5598 </r>
       <r>    33.7392     2.3463    68.9654 </r>
       <r>    34.3383     1.5985    69.9231 </r>
       <r>    34.9373     0.9159    70.4718 </r>
       <r>    35.5364     1.2397    71.2144 </r>
       <r>    36.1355     0.7223    71.6472 </r>
       <r>    36.7346     0.0474    71.6756 </r>
       <r>    37.3337     0.0007    71.6760 </r>
       <r>    37.9328     0.0324    71.6954 </r>
       <r>    38.5319     0.0239    71.7097 </r>
       <r>    39.1310     0.0238    71.7240 </r>
       <r>    39.7300     0.0132    71.7319 </r>
       <r>    40.3291     0.0069    71.7360 </r>
       <r>    40.9282     0.0000    71.7360 </r>
       <r>    41.5273     0.0000    71.7360 </r>
       <r>    42.1264     0.0270    71.7522 </r>
       <r>    42.7255     0.0453    71.7793 </r>
       <r>    43.3246     0.0084    71.7843 </r>
       <r>    43.9236     0.0193    71.7959 </r>
       <r>    44.5227     0.0196    71.8076 </r>
       <r>    45.1218     0.0882    71.8605 </r>
       <r>    45.7209     0.0159    71.8700 </r>
       <r>    46.3200     0.0738    71.9142 </r>
       <r>    46.9191     0.0030    71.9160 </r>
       <r>    47.5182     0.0004    71.9163 </r>
       <r>    48.1173     0.0906    71.9705 </r>
       <r>    48.7163     0.0171    71.9808 </r>
       <r>    49.3154     0.0120    71.9880 </r>
       <r>    49.9145     0.0000    71.9880 </r>
       <r>    50.5136     0.0000    71.9880 </r>
       <r>    51.1127     0.0000    71.9880 </r>
       <r>    51.7118     0.0000    71.9880 </r>
       <r>    52.3109     0.0000    71.9880 </r>
       <r>    52.9099     0.0000    71.9880 </r>
       <r>    53.5090     0.0000    71.9880 </r>
       <r>    54.1081     0.0000    71.9880 </r>
       <r>    54.7072     0.0000    71.9880 </r>
       <r>    55.3063     0.0000    71.9880 </r>
       <r>    55.9054     0.0000    71.9880 </r>
       <r>    56.5045     0.0000    71.9880 </r>
       <r>    57.1036     0.0000    71.9880 </r>
       <r>    57.7026     0.0012    71.9887 </r>
       <r>    58.3017     0.0187    72.0000 </r>
       <r>    58.9008     0.0001    72.0000 </r>
       <r>    59.4999     0.0000    72.0000 </r>
       <r>    60.0990     0.0000    72.0000 </r>
       <r>    60.6981     0.0000    72.0000 </r>
       <r>    61.2972     0.0000    72.0000 </r>
       <r>    61.8962     0.0000    72.0000 </r>
       <r>    62.4953     0.0000    72.0000 </r>
       <r>    63.0944     0.0000    72.0000 </r>
       <r>    63.6935     0.0000    72.0000 </r>
       <r>    64.2926     0.0000    72.0000 </r>
       <r>    64.8917     0.0000    72.0000 </r>
       <r>    65.4908     0.0000    72.0000 </r>
       <r>    66.0898     0.0000    72.0000 </r>
      </set>
     </set>
    </array>
   </total>
  </dos>
 </calculation>
 <structure name="finalpos" >
  <crystal>
   <varray name="basis" >
    <v>       1.42005454       0.81986888       5.62827908 </v>
    <v>      -1.42005454       0.81986888       5.62827908 </v>
    <v>       0.00000000      -1.63973774       5.62827908 </v>
   </varray>
   <i name="volume">     39.31663112 </i>
   <varray name="rec_basis" >
    <v>       0.35209915       0.20328454       0.05922473 </v>
    <v>      -0.35209915       0.20328454       0.05922473 </v>
    <v>      -0.00000000      -0.40656908       0.05922473 </v>
   </varray>
  </crystal>
  <varray name="positions" >
   <v>       0.00000000       0.00000000       0.00000000 </v>
   <v>       0.50000000       0.50000000       0.50000000 </v>
   <v>       0.10956395       0.10956395       0.10956395 </v>
   <v>       0.89043605       0.89043605       0.89043605 </v>
  </varray>
 </structure>
</modeling>
