   4   4   0   0
  0.9829158E+01  0.5862275E-09  0.5862275E-09  0.5862275E-09  0.5000000E-15
  1.000000000000000E-004
  CAR 
 unknown system                          
     49.37804302   -112.83873543  301      6.79613867      1.00000000
   -112.839  0.0000E+00  0.0000E+00
   -112.298  0.0000E+00  0.0000E+00
   -111.757  0.0000E+00  0.0000E+00
   -111.217  0.0000E+00  0.0000E+00
   -110.676  0.0000E+00  0.0000E+00
   -110.135  0.0000E+00  0.0000E+00
   -109.594  0.0000E+00  0.0000E+00
   -109.054  0.0000E+00  0.0000E+00
   -108.513  0.0000E+00  0.0000E+00
   -107.972  0.0000E+00  0.0000E+00
   -107.432  0.0000E+00  0.0000E+00
   -106.891  0.0000E+00  0.0000E+00
   -106.350  0.7275E-09  0.3934E-09
   -105.809  0.2768E-01  0.1497E-01
   -105.269  0.3367E+01  0.1836E+01
   -104.728  0.3041E+00  0.2000E+01
   -104.187  0.3421E-06  0.2000E+01
   -103.646  0.0000E+00  0.2000E+01
   -103.106  0.0000E+00  0.2000E+01
   -102.565  0.0000E+00  0.2000E+01
   -102.024  0.0000E+00  0.2000E+01
   -101.484  0.0000E+00  0.2000E+01
   -100.943  0.0000E+00  0.2000E+01
   -100.402  0.0000E+00  0.2000E+01
    -99.861  0.0000E+00  0.2000E+01
    -99.321  0.0000E+00  0.2000E+01
    -98.780  0.0000E+00  0.2000E+01
    -98.239  0.0000E+00  0.2000E+01
    -97.699  0.0000E+00  0.2000E+01
    -97.158  0.0000E+00  0.2000E+01
    -96.617  0.0000E+00  0.2000E+01
    -96.076  0.0000E+00  0.2000E+01
    -95.536  0.0000E+00  0.2000E+01
    -94.995  0.0000E+00  0.2000E+01
    -94.454  0.0000E+00  0.2000E+01
    -93.913  0.0000E+00  0.2000E+01
    -93.373  0.0000E+00  0.2000E+01
    -92.832  0.0000E+00  0.2000E+01
    -92.291  0.0000E+00  0.2000E+01
    -91.751  0.0000E+00  0.2000E+01
    -91.210  0.0000E+00  0.2000E+01
    -90.669  0.0000E+00  0.2000E+01
    -90.128  0.0000E+00  0.2000E+01
    -89.588  0.0000E+00  0.2000E+01
    -89.047  0.0000E+00  0.2000E+01
    -88.506  0.0000E+00  0.2000E+01
    -87.965  0.0000E+00  0.2000E+01
    -87.425  0.0000E+00  0.2000E+01
    -86.884  0.0000E+00  0.2000E+01
    -86.343  0.0000E+00  0.2000E+01
    -85.803  0.0000E+00  0.2000E+01
    -85.262  0.0000E+00  0.2000E+01
    -84.721  0.0000E+00  0.2000E+01
    -84.180  0.0000E+00  0.2000E+01
    -83.640  0.0000E+00  0.2000E+01
    -83.099  0.0000E+00  0.2000E+01
    -82.558  0.0000E+00  0.2000E+01
    -82.018  0.0000E+00  0.2000E+01
    -81.477  0.0000E+00  0.2000E+01
    -80.936  0.0000E+00  0.2000E+01
    -80.395  0.0000E+00  0.2000E+01
    -79.855  0.0000E+00  0.2000E+01
    -79.314  0.0000E+00  0.2000E+01
    -78.773  0.0000E+00  0.2000E+01
    -78.232  0.0000E+00  0.2000E+01
    -77.692  0.0000E+00  0.2000E+01
    -77.151  0.0000E+00  0.2000E+01
    -76.610  0.0000E+00  0.2000E+01
    -76.070  0.0000E+00  0.2000E+01
    -75.529  0.0000E+00  0.2000E+01
    -74.988  0.0000E+00  0.2000E+01
    -74.447  0.0000E+00  0.2000E+01
    -73.907  0.0000E+00  0.2000E+01
    -73.366  0.0000E+00  0.2000E+01
    -72.825  0.0000E+00  0.2000E+01
    -72.285  0.0000E+00  0.2000E+01
    -71.744  0.0000E+00  0.2000E+01
    -71.203  0.0000E+00  0.2000E+01
    -70.662  0.0000E+00  0.2000E+01
    -70.122  0.0000E+00  0.2000E+01
    -69.581  0.0000E+00  0.2000E+01
    -69.040  0.0000E+00  0.2000E+01
    -68.499  0.0000E+00  0.2000E+01
    -67.959  0.0000E+00  0.2000E+01
    -67.418  0.0000E+00  0.2000E+01
    -66.877  0.0000E+00  0.2000E+01
    -66.337  0.0000E+00  0.2000E+01
    -65.796  0.0000E+00  0.2000E+01
    -65.255  0.0000E+00  0.2000E+01
    -64.714  0.0000E+00  0.2000E+01
    -64.174  0.1347E-11  0.2000E+01
    -63.633  0.1500E-02  0.2001E+01
    -63.092  0.3876E+01  0.4096E+01
    -62.552  0.7206E+01  0.7993E+01
    -62.011  0.1324E-01  0.8000E+01
    -61.470  0.6220E-10  0.8000E+01
    -60.929  0.0000E+00  0.8000E+01
    -60.389  0.0000E+00  0.8000E+01
    -59.848  0.0000E+00  0.8000E+01
    -59.307  0.0000E+00  0.8000E+01
    -58.766  0.0000E+00  0.8000E+01
    -58.226  0.0000E+00  0.8000E+01
    -57.685  0.0000E+00  0.8000E+01
    -57.144  0.0000E+00  0.8000E+01
    -56.604  0.0000E+00  0.8000E+01
    -56.063  0.0000E+00  0.8000E+01
    -55.522  0.0000E+00  0.8000E+01
    -54.981  0.0000E+00  0.8000E+01
    -54.441  0.0000E+00  0.8000E+01
    -53.900  0.0000E+00  0.8000E+01
    -53.359  0.0000E+00  0.8000E+01
    -52.819  0.0000E+00  0.8000E+01
    -52.278  0.0000E+00  0.8000E+01
    -51.737  0.0000E+00  0.8000E+01
    -51.196  0.0000E+00  0.8000E+01
    -50.656  0.0000E+00  0.8000E+01
    -50.115  0.0000E+00  0.8000E+01
    -49.574  0.0000E+00  0.8000E+01
    -49.033  0.0000E+00  0.8000E+01
    -48.493  0.0000E+00  0.8000E+01
    -47.952  0.0000E+00  0.8000E+01
    -47.411  0.0000E+00  0.8000E+01
    -46.871  0.0000E+00  0.8000E+01
    -46.330  0.0000E+00  0.8000E+01
    -45.789  0.0000E+00  0.8000E+01
    -45.248  0.0000E+00  0.8000E+01
    -44.708  0.0000E+00  0.8000E+01
    -44.167  0.0000E+00  0.8000E+01
    -43.626  0.0000E+00  0.8000E+01
    -43.086  0.0000E+00  0.8000E+01
    -42.545  0.0000E+00  0.8000E+01
    -42.004  0.0000E+00  0.8000E+01
    -41.463  0.0000E+00  0.8000E+01
    -40.923  0.0000E+00  0.8000E+01
    -40.382  0.0000E+00  0.8000E+01
    -39.841  0.0000E+00  0.8000E+01
    -39.300  0.0000E+00  0.8000E+01
    -38.760  0.0000E+00  0.8000E+01
    -38.219  0.0000E+00  0.8000E+01
    -37.678  0.0000E+00  0.8000E+01
    -37.138  0.0000E+00  0.8000E+01
    -36.597  0.0000E+00  0.8000E+01
    -36.056  0.0000E+00  0.8000E+01
    -35.515  0.0000E+00  0.8000E+01
    -34.975  0.0000E+00  0.8000E+01
    -34.434  0.0000E+00  0.8000E+01
    -33.893  0.0000E+00  0.8000E+01
    -33.353  0.0000E+00  0.8000E+01
    -32.812  0.0000E+00  0.8000E+01
    -32.271  0.0000E+00  0.8000E+01
    -31.730  0.0000E+00  0.8000E+01
    -31.190  0.0000E+00  0.8000E+01
    -30.649  0.0000E+00  0.8000E+01
    -30.108  0.0000E+00  0.8000E+01
    -29.567  0.0000E+00  0.8000E+01
    -29.027  0.0000E+00  0.8000E+01
    -28.486  0.0000E+00  0.8000E+01
    -27.945  0.0000E+00  0.8000E+01
    -27.405  0.0000E+00  0.8000E+01
    -26.864  0.0000E+00  0.8000E+01
    -26.323  0.0000E+00  0.8000E+01
    -25.782  0.0000E+00  0.8000E+01
    -25.242  0.0000E+00  0.8000E+01
    -24.701  0.0000E+00  0.8000E+01
    -24.160  0.0000E+00  0.8000E+01
    -23.620  0.0000E+00  0.8000E+01
    -23.079  0.0000E+00  0.8000E+01
    -22.538  0.0000E+00  0.8000E+01
    -21.997  0.0000E+00  0.8000E+01
    -21.457  0.0000E+00  0.8000E+01
    -20.916  0.0000E+00  0.8000E+01
    -20.375  0.0000E+00  0.8000E+01
    -19.834  0.0000E+00  0.8000E+01
    -19.294  0.0000E+00  0.8000E+01
    -18.753  0.0000E+00  0.8000E+01
    -18.212  0.0000E+00  0.8000E+01
    -17.672  0.0000E+00  0.8000E+01
    -17.131  0.0000E+00  0.8000E+01
    -16.590  0.0000E+00  0.8000E+01
    -16.049  0.0000E+00  0.8000E+01
    -15.509  0.0000E+00  0.8000E+01
    -14.968  0.0000E+00  0.8000E+01
    -14.427  0.1247E-09  0.8000E+01
    -13.887  0.1271E-01  0.8007E+01
    -13.346  0.3201E+01  0.9738E+01
    -12.805  0.2433E+01  0.1105E+02
    -12.264  0.1751E+01  0.1200E+02
    -11.724  0.1852E-03  0.1200E+02
    -11.183  0.0000E+00  0.1200E+02
    -10.642  0.0000E+00  0.1200E+02
    -10.101  0.0000E+00  0.1200E+02
     -9.561  0.0000E+00  0.1200E+02
     -9.020  0.0000E+00  0.1200E+02
     -8.479  0.0000E+00  0.1200E+02
     -7.939  0.0000E+00  0.1200E+02
     -7.398  0.0000E+00  0.1200E+02
     -6.857  0.0000E+00  0.1200E+02
     -6.316  0.0000E+00  0.1200E+02
     -5.776  0.0000E+00  0.1200E+02
     -5.235  0.0000E+00  0.1200E+02
     -4.694  0.0000E+00  0.1200E+02
     -4.153  0.0000E+00  0.1200E+02
     -3.613  0.0000E+00  0.1200E+02
     -3.072  0.9015E-07  0.1200E+02
     -2.531  0.1897E+00  0.1210E+02
     -1.991  0.4155E+01  0.1435E+02
     -1.450  0.3047E+01  0.1600E+02
     -0.909  0.6045E-02  0.1600E+02
     -0.368  0.4251E-05  0.1600E+02
      0.172  0.6790E+00  0.1637E+02
      0.713  0.3064E+01  0.1802E+02
      1.254  0.3459E+01  0.1989E+02
      1.794  0.9018E+00  0.2038E+02
      2.335  0.3050E+01  0.2203E+02
      2.876  0.3566E+01  0.2396E+02
      3.417  0.3651E+01  0.2593E+02
      3.957  0.1732E+00  0.2603E+02
      4.498  0.4587E+01  0.2851E+02
      5.039  0.6176E+01  0.3185E+02
      5.580  0.6715E+00  0.3221E+02
      6.120  0.3290E+01  0.3399E+02
      6.661  0.1871E-01  0.3400E+02
      7.202  0.2970E-09  0.3400E+02
      7.742  0.8272E-04  0.3400E+02
      8.283  0.1472E+01  0.3480E+02
      8.824  0.2226E+01  0.3600E+02
      9.365  0.6738E-03  0.3600E+02
      9.905  0.2762E-12  0.3600E+02
     10.446  0.0000E+00  0.3600E+02
     10.987  0.3694E-09  0.3600E+02
     11.527  0.1713E-01  0.3601E+02
     12.068  0.3309E+01  0.3780E+02
     12.609  0.4875E+00  0.3806E+02
     13.150  0.7486E-01  0.3810E+02
     13.690  0.3072E+01  0.3976E+02
     14.231  0.6872E+00  0.4014E+02
     14.772  0.7341E-01  0.4018E+02
     15.313  0.9496E-01  0.4023E+02
     15.853  0.1356E+00  0.4030E+02
     16.394  0.3982E+00  0.4052E+02
     16.935  0.3338E+01  0.4232E+02
     17.475  0.4192E+01  0.4459E+02
     18.016  0.7728E+00  0.4500E+02
     18.557  0.3537E+01  0.4692E+02
     19.098  0.3823E+00  0.4712E+02
     19.638  0.3862E+00  0.4733E+02
     20.179  0.6476E+00  0.4768E+02
     20.720  0.6263E+00  0.4802E+02
     21.260  0.1809E+01  0.4900E+02
     21.801  0.5203E+01  0.5181E+02
     22.342  0.6581E+00  0.5217E+02
     22.883  0.1998E+01  0.5325E+02
     23.423  0.2327E+01  0.5451E+02
     23.964  0.4235E+00  0.5474E+02
     24.505  0.2885E+00  0.5489E+02
     25.046  0.3270E+00  0.5507E+02
     25.586  0.1302E+01  0.5577E+02
     26.127  0.2278E+01  0.5700E+02
     26.668  0.1144E+00  0.5707E+02
     27.208  0.2090E+00  0.5718E+02
     27.749  0.1950E+00  0.5728E+02
     28.290  0.2808E+00  0.5744E+02
     28.831  0.4622E+01  0.5994E+02
     29.371  0.3007E+01  0.6156E+02
     29.912  0.4562E+00  0.6181E+02
     30.453  0.5494E+00  0.6211E+02
     30.993  0.5672E+00  0.6241E+02
     31.534  0.4986E+01  0.6511E+02
     32.075  0.1328E+01  0.6583E+02
     32.616  0.5134E+00  0.6610E+02
     33.156  0.4346E+01  0.6845E+02
     33.697  0.1476E+01  0.6925E+02
     34.238  0.7741E+00  0.6967E+02
     34.779  0.2811E+00  0.6982E+02
     35.319  0.3090E+00  0.6999E+02
     35.860  0.1731E+01  0.7093E+02
     36.401  0.1243E+01  0.7160E+02
     36.941  0.2770E+00  0.7175E+02
     37.482  0.1027E+00  0.7180E+02
     38.023  0.5799E-01  0.7183E+02
     38.564  0.1466E-01  0.7184E+02
     39.104  0.5311E-01  0.7187E+02
     39.645  0.5675E-01  0.7190E+02
     40.186  0.8678E-03  0.7190E+02
     40.726  0.4469E-01  0.7193E+02
     41.267  0.7602E-01  0.7197E+02
     41.808  0.5532E-02  0.7197E+02
     42.349  0.5520E-01  0.7200E+02
     42.889  0.4538E-03  0.7200E+02
     43.430  0.1193E-10  0.7200E+02
     43.971  0.0000E+00  0.7200E+02
     44.512  0.0000E+00  0.7200E+02
     45.052  0.0000E+00  0.7200E+02
     45.593  0.0000E+00  0.7200E+02
     46.134  0.0000E+00  0.7200E+02
     46.674  0.0000E+00  0.7200E+02
     47.215  0.0000E+00  0.7200E+02
     47.756  0.0000E+00  0.7200E+02
     48.297  0.0000E+00  0.7200E+02
     48.837  0.0000E+00  0.7200E+02
     49.378  0.0000E+00  0.7200E+02
