    4    4    1    1
  0.9829158E+01  0.5862275E-09  0.5862275E-09  0.5862275E-09  0.5000000E-15
  1.000000000000000E-004
  CAR 
 unknown system                          
     34     61     36
 
  0.5000000E+00  0.0000000E+00  0.0000000E+00  0.1639344E-01
    1     -105.465244   1.000000
    2      -63.159151   1.000000
    3      -62.972436   1.000000
    4      -62.956175   1.000000
    5      -13.503856   1.000000
    6      -12.814553   1.000000
    7       -2.301133   1.000000
    8       -1.866781   1.000000
    9        0.299453   1.000000
   10        1.026203   1.000000
   11        1.918102   1.000000
   12        2.635970   1.000000
   13        3.155704   1.000000
   14        4.268370   1.000000
   15        4.572739   1.000000
   16        4.836434   1.000000
   17        5.758051   1.000000
   18        8.317982   0.000000
   19       11.896351   0.000000
   20       13.560758   0.000000
   21       16.811038   0.000000
   22       17.292868   0.000000
   23       18.209501   0.000000
   24       21.574173   0.000000
   25       21.086786   0.000000
   26       22.912932   0.000000
   27       25.703903   0.000000
   28       28.639390   0.000000
   29       28.893500   0.000000
   30       24.404573   0.000000
   31       31.348178   0.000000
   32       18.833625   0.000000
   33       34.358854   0.000000
   34       35.762593   0.000000
   35       32.510647   0.000000
   36       30.709311   0.000000
 
  0.4957291E+00  0.4270945E-02  0.0000000E+00  0.1639344E-01
    1     -105.465245   1.000000
    2      -63.159152   1.000000
    3      -62.972426   1.000000
    4      -62.956175   1.000000
    5      -13.505043   1.000000
    6      -12.814229   1.000000
    7       -2.299599   1.000000
    8       -1.866130   1.000000
    9        0.299266   1.000000
   10        1.025466   1.000000
   11        1.919007   1.000000
   12        2.635303   1.000000
   13        3.156386   1.000000
   14        4.268616   1.000000
   15        4.572724   1.000000
   16        4.835814   1.000000
   17        5.755150   1.000000
   18        8.319539   0.000000
   19       11.900314   0.000000
   20       13.562453   0.000000
   21       16.811250   0.000000
   22       17.292190   0.000000
   23       18.207181   0.000000
   24       21.592703   0.000000
   25       20.649936   0.000000
   26       22.912047   0.000000
   27       20.908306   0.000000
   28       25.547860   0.000000
   29       28.624858   0.000000
   30       28.893811   0.000000
   31       31.336617   0.000000
   32       31.418741   0.000000
   33       33.059230   0.000000
   34       35.020553   0.000000
   35       34.706555   0.000000
   36       37.811599   0.000000
 
  0.4978645E+00  0.2135473E-02  0.0000000E+00  0.1639344E-01
    1     -105.465244   1.000000
    2      -63.159152   1.000000
    3      -62.972434   1.000000
    4      -62.956175   1.000000
    5      -13.504153   1.000000
    6      -12.814472   1.000000
    7       -2.300749   1.000000
    8       -1.866618   1.000000
    9        0.299406   1.000000
   10        1.026018   1.000000
   11        1.918329   1.000000
   12        2.635803   1.000000
   13        3.155875   1.000000
   14        4.268431   1.000000
   15        4.572735   1.000000
   16        4.836279   1.000000
   17        5.757325   1.000000
   18        8.318372   0.000000
   19       11.897342   0.000000
   20       13.561181   0.000000
   21       16.811091   0.000000
   22       17.292698   0.000000
   23       18.208913   0.000000
   24       21.580475   0.000000
   25       20.828303   0.000000
   26       22.908702   0.000000
   27       23.651710   0.000000
   28       28.635752   0.000000
   29       28.893631   0.000000
   30       31.336092   0.000000
   31       31.418703   0.000000
   32       33.051995   0.000000
   33       33.674893   0.000000
   34       36.748048   0.000000
   35       31.467552   0.000000
   36       38.696219   0.000000
 
  0.5021355E+00 -0.2135473E-02  0.0000000E+00  0.1639344E-01
    1     -105.465244   1.000000
    2      -63.159151   1.000000
    3      -62.972434   1.000000
    4      -62.956175   1.000000
    5      -13.504153   1.000000
    6      -12.814472   1.000000
    7       -2.300749   1.000000
    8       -1.866618   1.000000
    9        0.299406   1.000000
   10        1.026018   1.000000
   11        1.918329   1.000000
   12        2.635803   1.000000
   13        3.155875   1.000000
   14        4.268431   1.000000
   15        4.572735   1.000000
   16        4.836279   1.000000
   17        5.757325   1.000000
   18        8.318372   0.000000
   19       11.897342   0.000000
   20       13.561181   0.000000
   21       16.811091   0.000000
   22       17.292698   0.000000
   23       18.207306   0.000000
   24       18.739284   0.000000
   25       21.580247   0.000000
   26       21.442455   0.000000
   27       22.695591   0.000000
   28       25.705955   0.000000
   29       28.635753   0.000000
   30       28.893631   0.000000
   31       30.214113   0.000000
   32       30.645354   0.000000
   33       33.002795   0.000000
   34       33.059931   0.000000
   35       20.896408   0.000000
   36       35.721933   0.000000
 
  0.5042709E+00 -0.4270945E-02  0.0000000E+00  0.1639344E-01
    1     -105.465245   1.000000
    2      -63.159152   1.000000
    3      -62.972426   1.000000
    4      -62.956175   1.000000
    5      -13.505043   1.000000
    6      -12.814229   1.000000
    7       -2.299599   1.000000
    8       -1.866130   1.000000
    9        0.299266   1.000000
   10        1.025466   1.000000
   11        1.919007   1.000000
   12        2.635303   1.000000
   13        3.156386   1.000000
   14        4.268616   1.000000
   15        4.572724   1.000000
   16        4.835814   1.000000
   17        5.755150   1.000000
   18        8.319539   0.000000
   19       11.900314   0.000000
   20       13.562453   0.000000
   21       16.811250   0.000000
   22       17.292190   0.000000
   23       18.206995   0.000000
   24       21.593159   0.000000
   25       22.913042   0.000000
   26       25.708389   0.000000
   27       28.613564   0.000000
   28       28.835886   0.000000
   29       14.389108   0.000000
   30       31.336042   0.000000
   31       31.418595   0.000000
   32       18.679199   0.000000
   33       33.009362   0.000000
   34       33.064989   0.000000
   35       35.772126   0.000000
   36       39.334182   0.000000
 
  0.4975342E+00 -0.2465832E-02  0.4931663E-02  0.1639344E-01
    1     -105.465244   1.000000
    2      -63.159151   1.000000
    3      -62.972429   1.000000
    4      -62.956181   1.000000
    5      -13.504011   1.000000
    6      -12.814417   1.000000
    7       -2.300106   1.000000
    8       -1.866196   1.000000
    9        0.299595   1.000000
   10        1.023105   1.000000
   11        1.919644   1.000000
   12        2.633357   1.000000
   13        3.157324   1.000000
   14        4.268558   1.000000
   15        4.572508   1.000000
   16        4.835493   1.000000
   17        5.757085   1.000000
   18        8.320143   0.000000
   19       11.898740   0.000000
   20       13.563829   0.000000
   21       16.812063   0.000000
   22       17.292633   0.000000
   23       18.207956   0.000000
   24       21.282773   0.000000
   25       21.609176   0.000000
   26       22.912732   0.000000
   27       25.713956   0.000000
   28       12.477688   0.000000
   29       28.627757   0.000000
   30       28.883508   0.000000
   31       16.832797   0.000000
   32       31.347438   0.000000
   33       31.417207   0.000000
   34       32.957470   0.000000
   35       33.003740   0.000000
   36       35.722383   0.000000
 
  0.4987671E+00 -0.1232916E-02  0.2465832E-02  0.1639344E-01
    1     -105.465244   1.000000
    2      -63.159151   1.000000
    3      -62.972434   1.000000
    4      -62.956177   1.000000
    5      -13.503895   1.000000
    6      -12.814519   1.000000
    7       -2.300876   1.000000
    8       -1.866635   1.000000
    9        0.299489   1.000000
   10        1.025427   1.000000
   11        1.918489   1.000000
   12        2.635315   1.000000
   13        3.156111   1.000000
   14        4.268417   1.000000
   15        4.572681   1.000000
   16        4.836199   1.000000
   17        5.757809   1.000000
   18        8.318522   0.000000
   19       11.896948   0.000000
   20       13.561526   0.000000
   21       16.811295   0.000000
   22       17.292798   0.000000
   23       18.208859   0.000000
   24       16.449314   0.000000
   25       21.234820   0.000000
   26       21.581264   0.000000
   27       15.376955   0.000000
   28       22.821917   0.000000
   29       25.707352   0.000000
   30       28.636518   0.000000
   31       28.891005   0.000000
   32       31.338989   0.000000
   33       31.418979   0.000000
   34       33.057550   0.000000
   35       33.947999   0.000000
   36       36.450368   0.000000
 
  0.5012329E+00  0.1232916E-02 -0.2465832E-02  0.1639344E-01
    1     -105.465244   1.000000
    2      -63.159151   1.000000
    3      -62.972434   1.000000
    4      -62.956176   1.000000
    5      -13.503895   1.000000
    6      -12.814519   1.000000
    7       -2.300876   1.000000
    8       -1.866635   1.000000
    9        0.299489   1.000000
   10        1.025427   1.000000
   11        1.918489   1.000000
   12        2.635315   1.000000
   13        3.156111   1.000000
   14        4.268417   1.000000
   15        4.572681   1.000000
   16        4.836199   1.000000
   17        5.757809   1.000000
   18        8.318522   0.000000
   19       11.896948   0.000000
   20       13.561526   0.000000
   21       16.811294   0.000000
   22       17.292810   0.000000
   23       18.208988   0.000000
   24       21.584799   0.000000
   25       19.600020   0.000000
   26       22.912632   0.000000
   27       22.487666   0.000000
   28       28.636519   0.000000
   29       28.891005   0.000000
   30       31.338990   0.000000
   31       31.418948   0.000000
   32       32.978955   0.000000
   33       33.053887   0.000000
   34       18.263602   0.000000
   35       35.794055   0.000000
   36       40.932780   0.000000
 
  0.5024658E+00  0.2465832E-02 -0.4931663E-02  0.1639344E-01
    1     -105.465244   1.000000
    2      -63.159151   1.000000
    3      -62.972429   1.000000
    4      -62.956181   1.000000
    5      -13.504011   1.000000
    6      -12.814417   1.000000
    7       -2.300106   1.000000
    8       -1.866196   1.000000
    9        0.299595   1.000000
   10        1.023105   1.000000
   11        1.919644   1.000000
   12        2.633357   1.000000
   13        3.157324   1.000000
   14        4.268558   1.000000
   15        4.572508   1.000000
   16        4.835493   1.000000
   17        5.757085   1.000000
   18        8.320143   0.000000
   19       11.898740   0.000000
   20       13.563829   0.000000
   21       16.812063   0.000000
   22       17.292636   0.000000
   23       18.207842   0.000000
   24       21.282703   0.000000
   25       21.608879   0.000000
   26       22.894664   0.000000
   27       25.465389   0.000000
   28       21.387288   0.000000
   29       28.627757   0.000000
   30       28.883517   0.000000
   31       31.347771   0.000000
   32       31.418961   0.000000
   33       33.006076   0.000000
   34       33.061017   0.000000
   35       35.752323   0.000000
   36       27.845229   0.000000
 
  0.4830724E+00 -0.1692757E-01 -0.1692757E-01  0.1639344E-01
    1     -105.465244   1.000000
    2      -63.159151   1.000000
    3      -62.972436   1.000000
    4      -62.956174   1.000000
    5      -13.503582   1.000000
    6      -12.814893   1.000000
    7       -2.301874   1.000000
    8       -1.865476   1.000000
    9        0.300487   1.000000
   10        1.026702   1.000000
   11        1.915755   1.000000
   12        2.634604   1.000000
   13        3.155707   1.000000
   14        4.268700   1.000000
   15        4.573776   1.000000
   16        4.836434   1.000000
   17        5.757711   1.000000
   18        8.318878   0.000000
   19       11.898543   0.000000
   20       13.561121   0.000000
   21       16.802898   0.000000
   22       17.296019   0.000000
   23       18.207506   0.000000
   24       21.586685   0.000000
   25       18.901806   0.000000
   26       22.915910   0.000000
   27       22.133643   0.000000
   28       25.710820   0.000000
   29       28.874247   0.000000
   30       30.075353   0.000000
   31       31.514381   0.000000
   32       33.607059   0.000000
   33       25.235989   0.000000
   34       35.753791   0.000000
   35       21.571965   0.000000
   36       31.577642   0.000000
 
  0.4915362E+00 -0.8463785E-02 -0.8463785E-02  0.1639344E-01
    1     -105.465244   1.000000
    2      -63.159151   1.000000
    3      -62.972436   1.000000
    4      -62.956175   1.000000
    5      -13.503787   1.000000
    6      -12.814638   1.000000
    7       -2.301319   1.000000
    8       -1.866454   1.000000
    9        0.299712   1.000000
   10        1.026328   1.000000
   11        1.917515   1.000000
   12        2.635628   1.000000
   13        3.155705   1.000000
   14        4.268453   1.000000
   15        4.572998   1.000000
   16        4.836434   1.000000
   17        5.757966   1.000000
   18        8.318206   0.000000
   19       11.896899   0.000000
   20       13.560848   0.000000
   21       16.808990   0.000000
   22       17.293659   0.000000
   23       18.208256   0.000000
   24       19.204724   0.000000
   25       21.314825   0.000000
   26       21.578846   0.000000
   27       22.913293   0.000000
   28       25.706578   0.000000
   29       28.630477   0.000000
   30       28.903190   0.000000
   31       19.978921   0.000000
   32       31.443424   0.000000
   33       22.338666   0.000000
   34       33.003778   0.000000
   35       34.067287   0.000000
   36       35.802992   0.000000
 
  0.5084638E+00  0.8463785E-02  0.8463785E-02  0.1639344E-01
    1     -105.465244   1.000000
    2      -63.159151   1.000000
    3      -62.972436   1.000000
    4      -62.956175   1.000000
    5      -13.503787   1.000000
    6      -12.814638   1.000000
    7       -2.301319   1.000000
    8       -1.866454   1.000000
    9        0.299712   1.000000
   10        1.026328   1.000000
   11        1.917515   1.000000
   12        2.635628   1.000000
   13        3.155705   1.000000
   14        4.268453   1.000000
   15        4.572998   1.000000
   16        4.836434   1.000000
   17        5.757966   1.000000
   18        8.318206   0.000000
   19       11.896899   0.000000
   20       13.560848   0.000000
   21       16.808991   0.000000
   22       17.293667   0.000000
   23       18.208477   0.000000
   24       21.578819   0.000000
   25       22.913615   0.000000
   26       25.705621   0.000000
   27       11.811361   0.000000
   28       28.630366   0.000000
   29       28.903127   0.000000
   30       16.382530   0.000000
   31       31.455362   0.000000
   32       33.673337   0.000000
   33       33.046043   0.000000
   34       25.918610   0.000000
   35       23.086347   0.000000
   36       36.263468   0.000000
 
  0.5169276E+00  0.1692757E-01  0.1692757E-01  0.1639344E-01
    1     -105.465244   1.000000
    2      -63.159151   1.000000
    3      -62.972436   1.000000
    4      -62.956174   1.000000
    5      -13.503582   1.000000
    6      -12.814893   1.000000
    7       -2.301874   1.000000
    8       -1.865476   1.000000
    9        0.300487   1.000000
   10        1.026702   1.000000
   11        1.915755   1.000000
   12        2.634604   1.000000
   13        3.155707   1.000000
   14        4.268700   1.000000
   15        4.573776   1.000000
   16        4.836434   1.000000
   17        5.757711   1.000000
   18        8.318878   0.000000
   19       11.898543   0.000000
   20       13.561121   0.000000
   21       16.802899   0.000000
   22       17.296018   0.000000
   23       18.207694   0.000000
   24       20.244108   0.000000
   25       21.550778   0.000000
   26       21.225557   0.000000
   27       22.902739   0.000000
   28       25.709680   0.000000
   29       28.606766   0.000000
   30       28.929011   0.000000
   31       18.547506   0.000000
   32       31.230817   0.000000
   33       31.517981   0.000000
   34       33.074932   0.000000
   35       30.952216   0.000000
   36       35.294460   0.000000
 
  0.4932632E+00  0.1805114E-02  0.4931663E-02  0.1639344E-01
    1     -105.465244   1.000000
    2      -63.159131   1.000000
    3      -62.972380   1.000000
    4      -62.956170   1.000000
    5      -13.506980   1.000000
    6      -12.813769   1.000000
    7       -2.297694   1.000000
    8       -1.865428   1.000000
    9        0.298846   1.000000
   10        1.026459   1.000000
   11        1.919441   1.000000
   12        2.636064   1.000000
   13        3.156397   1.000000
   14        4.268943   1.000000
   15        4.572867   1.000000
   16        4.835430   1.000000
   17        5.750844   1.000000
   18        8.320646   0.000000
   19       11.905428   0.000000
   20       13.563142   0.000000
   21       16.810888   0.000000
   22       17.291221   0.000000
   23       18.202758   0.000000
   24       21.307370   0.000000
   25       20.504194   0.000000
   26       19.903663   0.000000
   27       22.902189   0.000000
   28       25.707357   0.000000
   29       28.608933   0.000000
   30       28.900901   0.000000
   31       31.328824   0.000000
   32       31.418197   0.000000
   33       29.371178   0.000000
   34       32.627593   0.000000
   35       25.976158   0.000000
   36       35.778569   0.000000
 
  0.4953987E+00 -0.3303588E-03  0.4931663E-02  0.1639344E-01
    1     -105.465245   1.000000
    2      -63.159152   1.000000
    3      -62.972424   1.000000
    4      -62.956176   1.000000
    5      -13.505202   1.000000
    6      -12.814174   1.000000
    7       -2.299284   1.000000
    8       -1.865976   1.000000
    9        0.299263   1.000000
   10        1.024966   1.000000
   11        1.919318   1.000000
   12        2.634875   1.000000
   13        3.156682   1.000000
   14        4.268670   1.000000
   15        4.572691   1.000000
   16        4.835616   1.000000
   17        5.754686   1.000000
   18        8.320008   0.000000
   19       11.901094   0.000000
   20       13.563061   0.000000
   21       16.811412   0.000000
   22       17.292065   0.000000
   23       18.203967   0.000000
   24       21.297470   0.000000
   25       21.599317   0.000000
   26       20.216561   0.000000
   27       22.871595   0.000000
   28       25.709954   0.000000
   29       28.621640   0.000000
   30       28.892462   0.000000
   31       15.427928   0.000000
   32       31.338025   0.000000
   33       31.418794   0.000000
   34       33.009729   0.000000
   35       33.059165   0.000000
   36       36.941963   0.000000
 
  0.4996696E+00 -0.4601304E-02  0.4931663E-02  0.1639344E-01
    1     -105.465244   1.000000
    2      -63.159150   1.000000
    3      -62.972430   1.000000
    4      -62.956187   1.000000
    5      -13.503413   1.000000
    6      -12.814499   1.000000
    7       -2.300161   1.000000
    8       -1.866091   1.000000
    9        0.299834   1.000000
   10        1.020880   1.000000
   11        1.920417   1.000000
   12        2.631512   1.000000
   13        3.158301   1.000000
   14        4.268569   1.000000
   15        4.572318   1.000000
   16        4.835061   1.000000
   17        5.758034   1.000000
   18        8.321056   0.000000
   19       11.898365   0.000000
   20       13.565443   0.000000
   21       16.812819   0.000000
   22       17.292854   0.000000
   23       18.208029   0.000000
   24       21.264365   0.000000
   25       21.601230   0.000000
   26       22.909243   0.000000
   27       21.423028   0.000000
   28       25.357010   0.000000
   29       28.470381   0.000000
   30       14.827832   0.000000
   31       28.873113   0.000000
   32       31.359984   0.000000
   33       34.406920   0.000000
   34       33.116548   0.000000
   35       31.448076   0.000000
   36       35.444689   0.000000
 
  0.5018051E+00 -0.6736777E-02  0.4931663E-02  0.1639344E-01
    1     -105.465239   1.000000
    2      -63.159105   1.000000
    3      -62.972424   1.000000
    4      -62.956129   1.000000
    5      -13.503402   1.000000
    6      -12.814409   1.000000
    7       -2.299450   1.000000
    8       -1.865656   1.000000
    9        0.299978   1.000000
   10        1.018319   1.000000
   11        1.921632   1.000000
   12        2.629347   1.000000
   13        3.159626   1.000000
   14        4.268707   1.000000
   15        4.572195   1.000000
   16        4.834321   1.000000
   17        5.757554   1.000000
   18        8.322745   0.000000
   19       11.899975   0.000000
   20       13.567905   0.000000
   21       16.813690   0.000000
   22       17.292741   0.000000
   23       18.206538   0.000000
   24       20.721901   0.000000
   25       21.645938   0.000000
   26       22.878976   0.000000
   27       24.726586   0.000000
   28       23.803886   0.000000
   29       28.618385   0.000000
   30       28.866140   0.000000
   31       31.399450   0.000000
   32       30.552959   0.000000
   33       33.034840   0.000000
   34       33.466056   0.000000
   35       35.803650   0.000000
   36       26.239689   0.000000
 
  0.4944961E+00  0.3038030E-02  0.2465832E-02  0.1639344E-01
    1     -105.465245   1.000000
    2      -63.159153   1.000000
    3      -62.972421   1.000000
    4      -62.956171   1.000000
    5      -13.505975   1.000000
    6      -12.814034   1.000000
    7       -2.298903   1.000000
    8       -1.865926   1.000000
    9        0.299018   1.000000
   10        1.026737   1.000000
   11        1.918838   1.000000
   12        2.636338   1.000000
   13        3.155975   1.000000
   14        4.268714   1.000000
   15        4.572853   1.000000
   16        4.835858   1.000000
   17        5.753234   1.000000
   18        8.319555   0.000000
   19       11.902273   0.000000
   20       13.562028   0.000000
   21       16.810803   0.000000
   22       17.291746   0.000000
   23       18.205871   0.000000
   24       21.252024   0.000000
   25       21.586174   0.000000
   26       22.901197   0.000000
   27       25.705768   0.000000
   28       28.619645   0.000000
   29       28.900022   0.000000
   30       31.329556   0.000000
   31       31.411186   0.000000
   32       18.605035   0.000000
   33       32.998803   0.000000
   34       34.042598   0.000000
   35       35.850779   0.000000
   36       37.223574   0.000000
 
  0.4966316E+00  0.9025570E-03  0.2465832E-02  0.1639344E-01
    1     -105.465245   1.000000
    2      -63.159152   1.000000
    3      -62.972430   1.000000
    4      -62.956174   1.000000
    5      -13.504639   1.000000
    6      -12.814357   1.000000
    7       -2.300273   1.000000
    8       -1.866443   1.000000
    9        0.299299   1.000000
   10        1.026266   1.000000
   11        1.918438   1.000000
   12        2.635993   1.000000
   13        3.155873   1.000000
   14        4.268503   1.000000
   15        4.572771   1.000000
   16        4.836183   1.000000
   17        5.756245   1.000000
   18        8.318651   0.000000
   19       11.898621   0.000000
   20       13.561353   0.000000
   21       16.810996   0.000000
   22       17.292447   0.000000
   23       18.207682   0.000000
   24       21.568342   0.000000
   25       22.912070   0.000000
   26       23.788581   0.000000
   27       23.774327   0.000000
   28       28.631423   0.000000
   29       28.895612   0.000000
   30       16.027406   0.000000
   31       31.331648   0.000000
   32       30.786550   0.000000
   33       33.018458   0.000000
   34       33.070226   0.000000
   35       35.849293   0.000000
   36       28.936443   0.000000
 
  0.5009026E+00 -0.3368389E-02  0.2465832E-02  0.1639344E-01
    1     -105.465244   1.000000
    2      -63.159151   1.000000
    3      -62.972433   1.000000
    4      -62.956179   1.000000
    5      -13.503744   1.000000
    6      -12.814519   1.000000
    7       -2.300712   1.000000
    8       -1.866501   1.000000
    9        0.299585   1.000000
   10        1.024220   1.000000
   11        1.918992   1.000000
   12        2.634305   1.000000
   13        3.156688   1.000000
   14        4.268453   1.000000
   15        4.572584   1.000000
   16        4.835905   1.000000
   17        5.757922   1.000000
   18        8.319174   0.000000
   19       11.897257   0.000000
   20       13.562545   0.000000
   21       16.811700   0.000000
   22       17.292830   0.000000
   23       18.205758   0.000000
   24       21.293028   0.000000
   25       21.596598   0.000000
   26       22.912612   0.000000
   27       21.077228   0.000000
   28       25.710568   0.000000
   29       28.634158   0.000000
   30       28.886581   0.000000
   31       31.344069   0.000000
   32       31.418929   0.000000
   33       22.426974   0.000000
   34       33.851439   0.000000
   35       32.742956   0.000000
   36       36.063884   0.000000
 
  0.5030380E+00 -0.5503861E-02  0.2465832E-02  0.1639344E-01
    1     -105.465244   1.000000
    2      -63.159151   1.000000
    3      -62.972427   1.000000
    4      -62.956182   1.000000
    5      -13.504188   1.000000
    6      -12.814358   1.000000
    7       -2.299781   1.000000
    8       -1.866041   1.000000
    9        0.299586   1.000000
   10        1.022649   1.000000
   11        1.919943   1.000000
   12        2.632966   1.000000
   13        3.157602   1.000000
   14        4.268613   1.000000
   15        4.572480   1.000000
   16        4.835300   1.000000
   17        5.756585   1.000000
   18        8.320602   0.000000
   19       11.899548   0.000000
   20       13.564412   0.000000
   21       16.812210   0.000000
   22       17.292518   0.000000
   23       18.206951   0.000000
   24       21.277839   0.000000
   25       21.614670   0.000000
   26       22.912732   0.000000
   27       25.715409   0.000000
   28       28.624449   0.000000
   29       28.882418   0.000000
   30       31.349039   0.000000
   31       31.419051   0.000000
   32       32.704008   0.000000
   33       33.008458   0.000000
   34       20.439956   0.000000
   35       35.723165   0.000000
   36       28.064332   0.000000
 
  0.4969620E+00  0.5503861E-02 -0.2465832E-02  0.1639344E-01
    1     -105.465244   1.000000
    2      -63.159151   1.000000
    3      -62.972427   1.000000
    4      -62.956182   1.000000
    5      -13.504188   1.000000
    6      -12.814358   1.000000
    7       -2.299781   1.000000
    8       -1.866041   1.000000
    9        0.299586   1.000000
   10        1.022649   1.000000
   11        1.919943   1.000000
   12        2.632966   1.000000
   13        3.157602   1.000000
   14        4.268613   1.000000
   15        4.572480   1.000000
   16        4.835300   1.000000
   17        5.756585   1.000000
   18        8.320602   0.000000
   19       11.899548   0.000000
   20       13.564412   0.000000
   21       16.812210   0.000000
   22       17.292519   0.000000
   23       18.207513   0.000000
   24       21.276110   0.000000
   25       21.611165   0.000000
   26       22.909310   0.000000
   27       25.715409   0.000000
   28       28.624447   0.000000
   29       28.882416   0.000000
   30       20.761376   0.000000
   31       31.348863   0.000000
   32       31.419048   0.000000
   33       33.007474   0.000000
   34       33.064091   0.000000
   35       21.501310   0.000000
   36       32.480009   0.000000
 
  0.4990974E+00  0.3368389E-02 -0.2465832E-02  0.1639344E-01
    1     -105.465244   1.000000
    2      -63.159151   1.000000
    3      -62.972433   1.000000
    4      -62.956179   1.000000
    5      -13.503744   1.000000
    6      -12.814519   1.000000
    7       -2.300712   1.000000
    8       -1.866501   1.000000
    9        0.299585   1.000000
   10        1.024220   1.000000
   11        1.918992   1.000000
   12        2.634305   1.000000
   13        3.156688   1.000000
   14        4.268453   1.000000
   15        4.572584   1.000000
   16        4.835905   1.000000
   17        5.757922   1.000000
   18        8.319174   0.000000
   19       11.897257   0.000000
   20       13.562545   0.000000
   21       16.811699   0.000000
   22       17.292835   0.000000
   23       18.208950   0.000000
   24       21.594329   0.000000
   25       21.048253   0.000000
   26       22.910048   0.000000
   27       21.280471   0.000000
   28       25.710460   0.000000
   29       28.634158   0.000000
   30       28.886581   0.000000
   31       31.342020   0.000000
   32       31.411676   0.000000
   33       27.691973   0.000000
   34       33.777508   0.000000
   35       33.100005   0.000000
   36       33.865958   0.000000
 
  0.5033684E+00 -0.9025570E-03 -0.2465832E-02  0.1639344E-01
    1     -105.465245   1.000000
    2      -63.159152   1.000000
    3      -62.972430   1.000000
    4      -62.956174   1.000000
    5      -13.504639   1.000000
    6      -12.814357   1.000000
    7       -2.300273   1.000000
    8       -1.866443   1.000000
    9        0.299299   1.000000
   10        1.026266   1.000000
   11        1.918438   1.000000
   12        2.635993   1.000000
   13        3.155873   1.000000
   14        4.268503   1.000000
   15        4.572771   1.000000
   16        4.836183   1.000000
   17        5.756245   1.000000
   18        8.318651   0.000000
   19       11.898621   0.000000
   20       13.561353   0.000000
   21       16.810996   0.000000
   22       17.292440   0.000000
   23       18.198157   0.000000
   24       21.312442   0.000000
   25       21.580075   0.000000
   26       22.913025   0.000000
   27       25.705758   0.000000
   28       28.631553   0.000000
   29       28.895615   0.000000