       N       E                     dE             d eps       ncg     rms          rms(c)
DAV:   1     0.315874117311E+03    0.31587E+03   -0.17994E+04  6576   0.320E+03
DAV:   2    -0.909188907453E+01   -0.32497E+03   -0.30577E+03  7080   0.751E+02
DAV:   3    -0.265962860852E+02   -0.17504E+02   -0.17462E+02  6756   0.161E+02
DAV:   4    -0.271015383287E+02   -0.50525E+00   -0.50515E+00  6648   0.167E+01
DAV:   5    -0.271265994333E+02   -0.25061E-01   -0.25060E-01  5412   0.359E+00
RMM:   6    -0.271271509311E+02   -0.55150E-03   -0.55150E-03  7732   0.103E+00
RMM:   7    -0.271276688756E+02   -0.51794E-03   -0.26770E-03  6576   0.134E+00
RMM:   8    -0.271278240308E+02   -0.15516E-03   -0.12320E-03  6634   0.761E-01
RMM:   9    -0.271278871141E+02   -0.63083E-04   -0.41562E-04  6526   0.564E-01
RMM:  10    -0.271279142530E+02   -0.27139E-04   -0.20686E-04  6407   0.356E-01
RMM:  11    -0.271279299271E+02   -0.15674E-04   -0.12935E-04  6334   0.242E-01
RMM:  12    -0.271279409044E+02   -0.10977E-04   -0.83750E-05  6076   0.191E-01
RMM:  13    -0.271279460497E+02   -0.51452E-05   -0.37675E-05  5716   0.142E-01
RMM:  14    -0.271279491117E+02   -0.30620E-05   -0.22260E-05  5473   0.105E-01
RMM:  15    -0.271279507947E+02   -0.16830E-05   -0.10225E-05  5207   0.833E-02
RMM:  16    -0.271279516892E+02   -0.89448E-06   -0.77478E-06  4942   0.513E-02
RMM:  17    -0.271279523707E+02   -0.68150E-06   -0.49796E-06  4704   0.457E-02
RMM:  18    -0.271279527265E+02   -0.35580E-06   -0.18905E-06  4573   0.387E-02
RMM:  19    -0.271279528981E+02   -0.17154E-06   -0.13981E-06  4504   0.242E-02
RMM:  20    -0.271279530373E+02   -0.13925E-06   -0.10639E-06  4459   0.208E-02
RMM:  21    -0.271279531060E+02   -0.68739E-07   -0.37074E-07  4388   0.195E-02
   1 F= -.27127953E+02 E0= -.27127953E+02  d E =-.208573E-12
