 vasp.5.4.4.18Apr17-6-g9f103f2a35 (build Dec 13 2019 19:06:22) complex          
  
 executed on             LinuxIFC date 2021.07.02  15:55:40
 running on   12 total cores
 distrk:  each k-point on   12 cores,    1 groups
 distr:  one band on NCORES_PER_BAND=   1 cores,   12 groups


--------------------------------------------------------------------------------------------------------


 INCAR:
 POTCAR:    PAW_PBE Cu_sv_GW 05Dec2013            
 POTCAR:    PAW_PBE Al_GW 19Mar2012               
 POTCAR:    PAW_PBE O_GW 28Sep2005                

 ----------------------------------------------------------------------------- 
|                                                                             |
|           W    W    AA    RRRRR   N    N  II  N    N   GGGG   !!!           |
|           W    W   A  A   R    R  NN   N  II  NN   N  G    G  !!!           |
|           W    W  A    A  R    R  N N  N  II  N N  N  G       !!!           |
|           W WW W  AAAAAA  RRRRR   N  N N  II  N  N N  G  GGG   !            |
|           WW  WW  A    A  R   R   N   NN  II  N   NN  G    G                |
|           W    W  A    A  R    R  N    N  II  N    N   GGGG   !!!           |
|                                                                             |
|      For optimal performance we recommend to set                            |
|        NCORE= 4 - approx SQRT( number of cores)                             |
|      NCORE specifies how many cores store one orbital (NPAR=cpu/NCORE).     |
|      This setting can  greatly improve the performance of VASP for DFT.     |
|      The default,   NCORE=1            might be grossly inefficient         |
|      on modern multi-core architectures or massively parallel machines.     |
|      Do your own testing !!!!                                               |
|      Unfortunately you need to use the default for GW and RPA calculations. |
|      (for HF NCORE is supported but not extensively tested yet)             |
|                                                                             |
 ----------------------------------------------------------------------------- 

 POTCAR:    PAW_PBE Cu_sv_GW 05Dec2013            
   VRHFIN =Cu: d10 p1                                                           
   LEXCH  = PE                                                                  
   EATOM  =  5382.7943 eV,  395.6242 Ry                                         
                                                                                
   TITEL  = PAW_PBE Cu_sv_GW 05Dec2013                                          
   LULTRA =        F    use ultrasoft PP ?                                      
   IUNSCR =        1    unscreen: 0-lin 1-nonlin 2-no                           
   RPACOR =    1.400    partial core radius                                     
   POMASS =   63.546; ZVAL   =   19.000    mass and valenz                      
   RCORE  =    1.900    outmost cutoff radius                                   
   RWIGS  =    2.100; RWIGS  =    1.111    wigner-seitz radius (au A)           
   ENMAX  =  391.688; ENMIN  =  293.766 eV                                      
   RCLOC  =    1.304    cutoff for local pot                                    
   LCOR   =        T    correct aug charges                                     
   LPAW   =        T    paw PP                                                  
   EAUG   =  982.892                                                            
   RMAX   =    1.950    core radius for proj-oper                               
   RAUG   =    1.300    factor for augmentation sphere                          
   RDEP   =    2.025    radius for radial grids                                 
   RDEPT  =    1.600    core radius for aug-charge                              
                                                                                
   Atomic configuration                                                         
    9 entries                                                                   
     n  l   j            E        occ.                                          
     1  0  0.50     -8850.2467   2.0000                                         
     2  0  0.50     -1062.3498   2.0000                                         
     2  1  1.50      -916.8226   6.0000                                         
     3  0  0.50      -114.6929   2.0000                                         
     4  0  0.50        -4.6097   1.0000                                         
     3  1  1.50       -72.1325   6.0000                                         
     3  1  1.50       -76.2144   0.0000                                         
     3  2  2.50        -5.0394  10.0000                                         
     4  3  2.50        -1.3606   0.0000                                         
   Description                                                                  
     l       E           TYP  RCUT    TYP  RCUT                                 
     0   -114.6929173     23  1.330                                             
     0     -4.6097111     23  1.700                                             
     0    204.0873900     23  1.330                                             
     1    -72.1324964     23  1.650                                             
     1    -76.2143949     23  1.650                                             
     1    136.0582600     23  1.650                                             
     2     -5.0393943     23  1.900                                             
     2     27.2116520     23  1.900                                             
     2    136.0582600     23  1.900                                             
     3     27.2116520     23  1.900                                             
     3    136.0582600     23  1.900                                             
  local pseudopotential read in
  partial core-charges read in
  partial kinetic energy density read in
  kinetic energy density of atom read in
  atomic valenz-charges read in
  non local Contribution for L=           0  read in
    real space projection operators read in
  non local Contribution for L=           0  read in
    real space projection operators read in
  non local Contribution for L=           0  read in
    real space projection operators read in
  non local Contribution for L=           1  read in
    real space projection operators read in
  non local Contribution for L=           1  read in
    real space projection operators read in
  non local Contribution for L=           1  read in
    real space projection operators read in
  non local Contribution for L=           2  read in
    real space projection operators read in
  non local Contribution for L=           2  read in
    real space projection operators read in
  non local Contribution for L=           2  read in
    real space projection operators read in
  non local Contribution for L=           3  read in
    real space projection operators read in
  non local Contribution for L=           3  read in
    real space projection operators read in
    PAW grid and wavefunctions read in
 
   number of l-projection  operators is LMAX  =          11
   number of lm-projection operators is LMMAX =          41
 
 POTCAR:    PAW_PBE Al_GW 19Mar2012               
   VRHFIN =Al: s2p1                                                             
   LEXCH  = PE                                                                  
   EATOM  =    53.5387 eV,    3.9350 Ry                                         
                                                                                
   TITEL  = PAW_PBE Al_GW 19Mar2012                                             
   LULTRA =        F    use ultrasoft PP ?                                      
   IUNSCR =        1    unscreen: 0-lin 1-nonlin 2-no                           
   RPACOR =    1.500    partial core radius                                     
   POMASS =   26.982; ZVAL   =    3.000    mass and valenz                      
   RCORE  =    2.000    outmost cutoff radius                                   
   RWIGS  =    2.000; RWIGS  =    1.058    wigner-seitz radius (au A)           
   ENMAX  =  240.300; ENMIN  =  180.225 eV                                      
   ICORE  =        3    local potential                                         
   LCOR   =        T    correct aug charges                                     
   LPAW   =        T    paw PP                                                  
   EAUG   =  482.059                                                            
   DEXC   =    0.000                                                            
   RMAX   =    2.051    core radius for proj-oper                               
   RAUG   =    1.300    factor for augmentation sphere                          
   RDEP   =    2.096    radius for radial grids                                 
   RDEPT  =    1.856    core radius for aug-charge                              
                                                                                
   Atomic configuration                                                         
    7 entries                                                                   
     n  l   j            E        occ.                                          
     1  0  0.50     -1511.1048   2.0000                                         
     2  0  0.50      -108.1629   2.0000                                         
     2  1  1.50       -69.6402   6.0000                                         
     3  0  0.50        -7.7528   2.0000                                         
     3  1  1.50        -2.7121   1.0000                                         
     3  2  2.50        -2.7212   0.0000                                         
     4  3  2.50        -2.7212   0.0000                                         
   Description                                                                  
     l       E           TYP  RCUT    TYP  RCUT                                 
     0     -7.7528455     23  1.900                                             
     0     68.0291300     23  1.900                                             
     1     -2.7120682     23  1.900                                             
     1     68.0291300     23  1.900                                             
     2     -1.3605826     23  1.900                                             
     2     81.6349560     23  1.900                                             
     3     74.8320430     23  2.000                                             
  local pseudopotential read in
  partial core-charges read in
  partial kinetic energy density read in
  kinetic energy density of atom read in
  atomic valenz-charges read in
  non local Contribution for L=           0  read in
    real space projection operators read in
  non local Contribution for L=           0  read in
    real space projection operators read in
  non local Contribution for L=           1  read in
    real space projection operators read in
  non local Contribution for L=           1  read in
    real space projection operators read in
  non local Contribution for L=           2  read in
    real space projection operators read in
  non local Contribution for L=           2  read in
    real space projection operators read in
    PAW grid and wavefunctions read in
 
   number of l-projection  operators is LMAX  =           6
   number of lm-projection operators is LMMAX =          18
 
 POTCAR:    PAW_PBE O_GW 28Sep2005                
   VRHFIN =O: s2p4                                                              
   LEXCH  = PE                                                                  
   EATOM  =   432.3788 eV,   31.7789 Ry                                         
                                                                                
   TITEL  = PAW_PBE O_GW 28Sep2005                                              
   LULTRA =        F    use ultrasoft PP ?                                      
   IUNSCR =        0    unscreen: 0-lin 1-nonlin 2-no                           
   RPACOR =    0.000    partial core radius                                     
   POMASS =   16.000; ZVAL   =    6.000    mass and valenz                      
   RCORE  =    1.520    outmost cutoff radius                                   
   RWIGS  =    1.550; RWIGS  =    0.820    wigner-seitz radius (au A)           
   ENMAX  =  414.635; ENMIN  =  310.976 eV                                      
   ICORE  =        2    local potential                                         
   LCOR   =        T    correct aug charges                                     
   LPAW   =        T    paw PP                                                  
   EAUG   =  605.392                                                            
   DEXC   =    0.000                                                            
   RMAX   =    1.553    core radius for proj-oper                               
   RAUG   =    1.300    factor for augmentation sphere                          
   RDEP   =    1.550    radius for radial grids                                 
   RDEPT  =    1.329    core radius for aug-charge                              
                                                                                
   Atomic configuration                                                         
    4 entries                                                                   
     n  l   j            E        occ.                                          
     1  0  0.50      -514.6923   2.0000                                         
     2  0  0.50       -23.9615   2.0000                                         
     2  1  0.50        -9.0305   4.0000                                         
     3  2  1.50        -9.5241   0.0000                                         
   Description                                                                  
     l       E           TYP  RCUT    TYP  RCUT                                 
     0    -23.9615316     23  1.200                                             
     0     81.6349560     23  1.200                                             
     1     -9.0304908     23  1.520                                             
     1     81.6349560     23  1.520                                             
     2     -9.5240782      7  1.500                                             
  local pseudopotential read in
  kinetic energy density of atom read in
  atomic valenz-charges read in
  non local Contribution for L=           0  read in
    real space projection operators read in
  non local Contribution for L=           0  read in
    real space projection operators read in
  non local Contribution for L=           1  read in
    real space projection operators read in
  non local Contribution for L=           1  read in
    real space projection operators read in
    PAW grid and wavefunctions read in
 
   number of l-projection  operators is LMAX  =           4
   number of lm-projection operators is LMMAX =           8
 

 ----------------------------------------------------------------------------- 
|                                                                             |
|  ADVICE TO THIS USER RUNNING 'VASP/VAMP'   (HEAR YOUR MASTER'S VOICE ...):  |
|                                                                             |
|      You enforced a specific xc-type in the INCAR file,                     |
|      a different type was found on the POTCAR file                          |
|          I HOPE YOU KNOW, WHAT YOU ARE  DOING                               |
|                                                                             |
 ----------------------------------------------------------------------------- 

  PAW_PBE Cu_sv_GW 05Dec2013            :
 energy of atom  1       EATOM=-5382.7943
 kinetic energy error for atom=    0.0943 (will be added to EATOM!!)
  PAW_PBE Al_GW 19Mar2012               :
 energy of atom  2       EATOM=  -53.5387
 kinetic energy error for atom=    0.0002 (will be added to EATOM!!)
  PAW_PBE O_GW 28Sep2005                :
 energy of atom  3       EATOM= -432.3788
 kinetic energy error for atom=    0.0194 (will be added to EATOM!!)
 
 
 POSCAR: CuAlO2 BenkoF84                         
  positions in direct lattice
  No initial velocities read in
 exchange correlation table for  LEXCH =       14
   RHO(1)=    0.500       N(1)  =     2000
   RHO(2)=  100.500       N(2)  =     4000
 


--------------------------------------------------------------------------------------------------------


 ion  position               nearest neighbor table
   1  0.000  0.000  0.000-   3 1.85   4 1.85
   2  0.500  0.500  0.500-   3 1.90   4 1.90   3 1.90   3 1.90   4 1.90   4 1.90
   3  0.110  0.110  0.110-   1 1.85   2 1.90   2 1.90   2 1.90
   4  0.890  0.890  0.890-   1 1.85   2 1.90   2 1.90   2 1.90
 
  LATTYP: Found a trigonal (rhomboedric) cell.
 ALAT       =     5.8622747487
 COS(alpha) =     0.8826433487
  
  Lattice vectors:
  
 A1 = (   1.4200545446,   0.8198688751,   5.6282790774)
 A2 = (  -1.4200545446,   0.8198688751,   5.6282790774)
 A3 = (   0.0000000000,  -1.6397377402,   5.6282790774)


Analysis of symmetry for initial positions (statically):
=====================================================================
 Subroutine PRICEL returns:
 Original cell was already a primitive cell.
 

 Routine SETGRP: Setting up the symmetry group for a 
 trigonal (rhombohedral) supercell.


 Subroutine GETGRP returns: Found 12 space group operations
 (whereof 12 operations were pure point group operations)
 out of a pool of 12 trial point group operations.


The static configuration has the point symmetry D_3d.


Analysis of symmetry for dynamics (positions and initial velocities):
=====================================================================
 Subroutine PRICEL returns:
 Original cell was already a primitive cell.
 

 Routine SETGRP: Setting up the symmetry group for a 
 trigonal (rhombohedral) supercell.


 Subroutine GETGRP returns: Found 12 space group operations
 (whereof 12 operations were pure point group operations)
 out of a pool of 12 trial point group operations.


The dynamic configuration has the point symmetry D_3d.


 Subroutine INISYM returns: Found 12 space group operations
 (whereof 12 operations are pure point group operations),
 and found     1 'primitive' translations

 
 
 KPOINTS: EMC 1.51py                              
  k-points in reciprocal lattice
Space group operators:
 irot       det(A)        alpha          n_x          n_y          n_z        tau_x        tau_y        tau_z
    1     1.000000     0.000000     1.000000     0.000000     0.000000     0.000000     0.000000     0.000000
    2    -1.000000     0.000000     1.000000     0.000000     0.000000     0.000000     0.000000     0.000000
    3     1.000000   180.000000    -0.500000     0.866025    -0.000000     0.000000     0.000000     0.000000
    4    -1.000000   180.000000    -0.500000     0.866025    -0.000000     0.000000     0.000000     0.000000
    5     1.000000   120.000000     0.000000    -0.000000    -1.000000     0.000000     0.000000     0.000000
    6    -1.000000   120.000000     0.000000    -0.000000    -1.000000     0.000000     0.000000     0.000000
    7     1.000000   180.000000     1.000000     0.000000     0.000000     0.000000     0.000000     0.000000
    8    -1.000000   180.000000     1.000000     0.000000     0.000000     0.000000     0.000000     0.000000
    9     1.000000   120.000000     0.000000     0.000000     1.000000     0.000000     0.000000     0.000000
   10    -1.000000   120.000000     0.000000     0.000000     1.000000     0.000000     0.000000     0.000000
   11     1.000000   180.000000     0.500000     0.866025    -0.000000     0.000000     0.000000     0.000000
   12    -1.000000   180.000000     0.500000     0.866025    -0.000000     0.000000     0.000000     0.000000


--------------------------------------------------------------------------------------------------------




 Dimension of arrays:
   k-points           NKPTS =     61   k-points in BZ     NKDIM =     61   number of bands    NBANDS=     36
   number of dos      NEDOS =    301   number of ions     NIONS =      4
   non local maximal  LDIM  =     11   non local SUM 2l+1 LMDIM =     41
   total plane-waves  NPLWV = 110592
   max r-space proj   IRMAX =      1   max aug-charges    IRDMAX= 109662
   dimension x,y,z NGX =    48 NGY =   48 NGZ =   48
   dimension x,y,z NGXF=    96 NGYF=   96 NGZF=   96
   support grid    NGXF=    96 NGYF=   96 NGZF=   96
   ions per type =               1   1   2
   NGX,Y,Z   is equivalent  to a cutoff of  13.61, 13.61, 13.61 a.u.
   NGXF,Y,Z  is equivalent  to a cutoff of  27.22, 27.22, 27.22 a.u.

 SYSTEM =  unknown system                          
 POSCAR =  CuAlO2 BenkoF84                         

 Startparameter for this run:
   NWRITE =      2    write-flag & timer
   PREC   = accura    normal or accurate (medium, high low for compatibility)
   ISTART =      0    job   : 0-new  1-cont  2-samecut
   ICHARG =     11    charge: 1-file 2-atom 10-const
   ISPIN  =      1    spin polarized calculation?
   LNONCOLLINEAR =      F non collinear calculations
   LSORBIT =      F    spin-orbit coupling
   INIWAV =      1    electr: 0-lowe 1-rand  2-diag
   LASPH  =      F    aspherical Exc in radial PAW
   METAGGA=      F    non-selfconsistent MetaGGA calc.

 Electronic Relaxation 1
   ENCUT  =  550.0 eV  40.42 Ry    6.36 a.u.  11.21 11.21 11.21*2*pi/ulx,y,z
   ENINI  =  550.0     initial cutoff
   ENAUG  =  982.9 eV  augmentation charge cutoff
   NELM   =     60;   NELMIN=  2; NELMDL= -5     # of ELM steps 
   EDIFF  = 0.1E-06   stopping-criterion for ELM
   LREAL  =      F    real-space projection
   NLSPLINE    = F    spline interpolate recip. space projectors
   LCOMPAT=      F    compatible to vasp.4.4
   GGA_COMPAT  = T    GGA compatible to vasp.4.4-vasp.4.6
   LMAXPAW     = -100 max onsite density
   LMAXMIX     =    2 max onsite mixed and CHGCAR
   VOSKOWN=      0    Vosko Wilk Nusair interpolation
   ROPT   =    0.00000   0.00000   0.00000
 Ionic relaxation
   EDIFFG = 0.1E-05   stopping-criterion for IOM
   NSW    =      0    number of steps for IOM
   NBLOCK =      1;   KBLOCK =      1    inner block; outer block 
   IBRION =     -1    ionic relax: 0-MD 1-quasi-New 2-CG
   NFREE  =      0    steps in history (QN), initial steepest desc. (CG)
   ISIF   =      2    stress and relaxation
   IWAVPR =     10    prediction:  0-non 1-charg 2-wave 3-comb
   ISYM   =      2    0-nonsym 1-usesym 2-fastsym
   LCORR  =      T    Harris-Foulkes like correction to forces

   POTIM  = 0.5000    time-step for ionic-motion
   TEIN   =    0.0    initial temperature
   TEBEG  =    0.0;   TEEND  =   0.0 temperature during run
   SMASS  =  -3.00    Nose mass-parameter (am)
   estimated Nose-frequenzy (Omega)   =  0.10E-29 period in steps =****** mass=  -0.785E-27a.u.
   SCALEE = 1.0000    scale energy and forces
   NPACO  =    256;   APACO  = 16.0  distance and # of slots for P.C.
   PSTRESS=    0.0 pullay stress

  Mass of Ions in am
   POMASS =  63.55 26.98 16.00
  Ionic Valenz
   ZVAL   =  19.00  3.00  6.00
  Atomic Wigner-Seitz radii
   RWIGS  =  -1.00 -1.00 -1.00
  virtual crystal weights 
   VCA    =   1.00  1.00  1.00
   NELECT =      34.0000    total number of electrons
   NUPDOWN=      -1.0000    fix difference up-down

 DOS related values:
   EMIN   =  10.00;   EMAX   =-10.00  energy-range for DOS
   EFERMI =   0.00
   ISMEAR =     0;   SIGMA  =   0.20  broadening in eV -4-tet -1-fermi 0-gaus

 Electronic relaxation 2 (details)
   IALGO  =     68    algorithm
   LDIAG  =      T    sub-space diagonalisation (order eigenvalues)
   LSUBROT=      F    optimize rotation matrix (better conditioning)
   TURBO    =      0    0=normal 1=particle mesh
   IRESTART =      0    0=no restart 2=restart with 2 vectors
   NREBOOT  =      0    no. of reboots
   NMIN     =      0    reboot dimension
   EREF     =   0.00    reference energy to select bands
   IMIX   =      4    mixing-type and parameters
     AMIX     =   0.40;   BMIX     =  1.00
     AMIX_MAG =   1.60;   BMIX_MAG =  1.00
     AMIN     =   0.10
     WC   =   100.;   INIMIX=   1;  MIXPRE=   1;  MAXMIX= -45

 Intra band minimization:
   WEIMIN = 0.0000     energy-eigenvalue tresh-hold
   EBREAK =  0.69E-09  absolut break condition
   DEPER  =   0.30     relativ break condition  

   TIME   =   0.40     timestep for ELM

  volume/ion in A,a.u.               =       9.83        66.33
  Fermi-wavevector in a.u.,A,eV,Ry     =   1.559705  2.947414 33.098602  2.432679
  Thomas-Fermi vector in A             =   2.663024
 
 Write flags
   LWAVE        =      F    write WAVECAR
   LDOWNSAMPLE  =      F    k-point downsampling of WAVECAR
   LCHARG       =      F    write CHGCAR
   LVTOT        =      F    write LOCPOT, total local potential
   LVHAR        =      F    write LOCPOT, Hartree potential only
   LELF         =      F    write electronic localiz. function (ELF)
   LORBIT       =      0    0 simple, 1 ext, 2 COOP (PROOUT), +10 PAW based schemes


 Dipole corrections
   LMONO  =      F    monopole corrections only (constant potential shift)
   LDIPOL =      F    correct potential (dipole corrections)
   IDIPOL =      0    1-x, 2-y, 3-z, 4-all directions 
   EPSILON=  1.0000000 bulk dielectric constant

 Exchange correlation treatment:
   GGA     =    PS    GGA type
   LEXCH   =    14    internal setting for exchange type
   VOSKOWN=      0    Vosko Wilk Nusair interpolation
   LHFCALC =     F    Hartree Fock is set to
   LHFONE  =     F    Hartree Fock one center treatment
   AEXX    =    0.0000 exact exchange contribution

 Linear response parameters
   LEPSILON=     F    determine dielectric tensor
   LRPA    =     F    only Hartree local field effects (RPA)
   LNABLA  =     F    use nabla operator in PAW spheres
   LVEL    =     F    velocity operator in full k-point grid
   LINTERFAST=   F  fast interpolation
   KINTER  =     0    interpolate to denser k-point grid
   CSHIFT  =0.1000    complex shift for real part using Kramers Kronig
   OMEGAMAX=  -1.0    maximum frequency
   DEG_THRESHOLD= 0.2000000E-02 threshold for treating states as degnerate
   RTIME   =   -0.100 relaxation time in fs
  (WPLASMAI=    0.000 imaginary part of plasma frequency in eV, 0.658/RTIME)
   DFIELD  = 0.0000000 0.0000000 0.0000000 field for delta impulse in time
 
 Orbital magnetization related:
   ORBITALMAG=     F  switch on orbital magnetization
   LCHIMAG   =     F  perturbation theory with respect to B field
   DQ        =  0.001000  dq finite difference perturbation B field
   LLRAUG    =     F  two centre corrections for induced B field



--------------------------------------------------------------------------------------------------------


 Static calculation
 charge density and potential remain constant during run
 non-spin polarized calculation
 RMM-DIIS sequential band-by-band and
  variant of blocked Davidson during initial phase
 perform sub-space diagonalisation
    before iterative eigenvector-optimisation
 no mixing
 using additional bands           19
 reciprocal scheme for non local part
 use partial core corrections
 calculate Harris-corrections to forces 
   (improved forces if not selfconsistent)
 use gradient corrections 
 WARNING: stress and forces are not correct
  (second derivative of E(xc) not defined)
 use of overlap-Matrix (Vanderbilt PP)
 Gauss-broadening in eV      SIGMA  =   0.20


--------------------------------------------------------------------------------------------------------


  energy-cutoff  :      550.00
  volume of cell :       39.32
      direct lattice vectors                 reciprocal lattice vectors
     1.420054545  0.819868875  5.628279077     0.352099151  0.203284540  0.059224734
    -1.420054545  0.819868875  5.628279077    -0.352099151  0.203284540  0.059224734
     0.000000000 -1.639737740  5.628279077    -0.000000000 -0.406569081  0.059224735

  length of vectors
     5.862274751  5.862274751  5.862274749     0.410860056  0.410860056  0.410860057


 
 k-points in units of 2pi/SCALE and weight: EMC 1.51py                              
   0.17604958  0.10164227  0.02961237       0.016
   0.17304198  0.10164227  0.02961237       0.016
   0.17454578  0.10164227  0.02961237       0.016
   0.17755337  0.10164227  0.02961237       0.016
   0.17905717  0.10164227  0.02961237       0.016
   0.17604958  0.09863468  0.02961237       0.016
   0.17604958  0.10013847  0.02961237       0.016
   0.17604958  0.10314607  0.02961237       0.016
   0.17604958  0.10464986  0.02961237       0.016
   0.17604958  0.10164227  0.02660477       0.016
   0.17604958  0.10164227  0.02810857       0.016
   0.17604958  0.10164227  0.03111616       0.016
   0.17604958  0.10164227  0.03261996       0.016
   0.17304198  0.09863468  0.02961237       0.016
   0.17454578  0.09863468  0.02961237       0.016
   0.17755337  0.09863468  0.02961237       0.016
   0.17905717  0.09863468  0.02961237       0.016
   0.17304198  0.10013847  0.02961237       0.016
   0.17454578  0.10013847  0.02961237       0.016
   0.17755337  0.10013847  0.02961237       0.016
   0.17905717  0.10013847  0.02961237       0.016
   0.17304198  0.10314607  0.02961237       0.016
   0.17454578  0.10314607  0.02961237       0.016
   0.17755337  0.10314607  0.02961237       0.016
   0.17905717  0.10314607  0.02961237       0.016
   0.17304198  0.10464986  0.02961237       0.016
   0.17454578  0.10464986  0.02961237       0.016
   0.17755337  0.10464986  0.02961237       0.016
   0.17905717  0.10464986  0.02961237       0.016
   0.17304198  0.10164227  0.02660477       0.016
   0.17454578  0.10164227  0.02660477       0.016
   0.17755337  0.10164227  0.02660477       0.016
   0.17905717  0.10164227  0.02660477       0.016
   0.17304198  0.10164227  0.02810857       0.016
   0.17454578  0.10164227  0.02810857       0.016
   0.17755337  0.10164227  0.02810857       0.016
   0.17905717  0.10164227  0.02810857       0.016
   0.17304198  0.10164227  0.03111616       0.016
   0.17454578  0.10164227  0.03111616       0.016
   0.17755337  0.10164227  0.03111616       0.016
   0.17905717  0.10164227  0.03111616       0.016
   0.17304198  0.10164227  0.03261996       0.016
   0.17454578  0.10164227  0.03261996       0.016
   0.17755337  0.10164227  0.03261996       0.016
   0.17905717  0.10164227  0.03261996       0.016
   0.17604958  0.09863468  0.02660477       0.016
   0.17604958  0.10013847  0.02660477       0.016
   0.17604958  0.10314607  0.02660477       0.016
   0.17604958  0.10464986  0.02660477       0.016
   0.17604958  0.09863468  0.02810857       0.016
   0.17604958  0.10013847  0.02810857       0.016
   0.17604958  0.10314607  0.02810857       0.016
   0.17604958  0.10464986  0.02810857       0.016
   0.17604958  0.09863468  0.03111616       0.016
   0.17604958  0.10013847  0.03111616       0.016
   0.17604958  0.10314607  0.03111616       0.016
   0.17604958  0.10464986  0.03111616       0.016
   0.17604958  0.09863468  0.03261996       0.016
   0.17604958  0.10013847  0.03261996       0.016
   0.17604958  0.10314607  0.03261996       0.016
   0.17604958  0.10464986  0.03261996       0.016
 
 k-points in reciprocal lattice and weights: EMC 1.51py                              
   0.50000000  0.00000000  0.00000000       0.016
   0.49572905  0.00427095  0.00000000       0.016
   0.49786453  0.00213547  0.00000000       0.016
   0.50213547 -0.00213547  0.00000000       0.016
   0.50427095 -0.00427095  0.00000000       0.016
   0.49753417 -0.00246583  0.00493166       0.016
   0.49876708 -0.00123292  0.00246583       0.016
   0.50123292  0.00123292 -0.00246583       0.016
   0.50246583  0.00246583 -0.00493166       0.016
   0.48307243 -0.01692757 -0.01692757       0.016
   0.49153621 -0.00846379 -0.00846379       0.016
   0.50846379  0.00846379  0.00846379       0.016
   0.51692757  0.01692757  0.01692757       0.016
   0.49326322  0.00180511  0.00493166       0.016
   0.49539870 -0.00033036  0.00493166       0.016
   0.49966964 -0.00460130  0.00493166       0.016
   0.50180511 -0.00673678  0.00493166       0.016
   0.49449614  0.00303803  0.00246583       0.016
   0.49663161  0.00090256  0.00246583       0.016
   0.50090256 -0.00336839  0.00246583       0.016
   0.50303803 -0.00550386  0.00246583       0.016
   0.49696197  0.00550386 -0.00246583       0.016
   0.49909744  0.00336839 -0.00246583       0.016
   0.50336839 -0.00090256 -0.00246583       0.016
   0.50550386 -0.00303803 -0.00246583       0.016
   0.49819489  0.00673678 -0.00493166       0.016
   0.50033036  0.00460130 -0.00493166       0.016
   0.50460130  0.00033036 -0.00493166       0.016
   0.50673678 -0.00180511 -0.00493166       0.016
   0.47880148 -0.01265662 -0.01692757       0.016
   0.48093696 -0.01479210 -0.01692757       0.016
   0.48520790 -0.01906304 -0.01692757       0.016
   0.48734338 -0.02119852 -0.01692757       0.016
   0.48726527 -0.00419284 -0.00846379       0.016
   0.48940074 -0.00632831 -0.00846379       0.016
   0.49367169 -0.01059926 -0.00846379       0.016
   0.49580716 -0.01273473 -0.00846379       0.016
   0.50419284  0.01273473  0.00846379       0.016
   0.50632831  0.01059926  0.00846379       0.016
   0.51059926  0.00632831  0.00846379       0.016
   0.51273473  0.00419284  0.00846379       0.016
   0.51265662  0.02119852  0.01692757       0.016
   0.51479210  0.01906304  0.01692757       0.016
   0.51906304  0.01479210  0.01692757       0.016
   0.52119852  0.01265662  0.01692757       0.016
   0.48060660 -0.01939340 -0.01199591       0.016
   0.48183951 -0.01816049 -0.01446174       0.016
   0.48430535 -0.01569465 -0.01939340       0.016
   0.48553826 -0.01446174 -0.02185923       0.016
   0.48907038 -0.01092962 -0.00353212       0.016
   0.49030330 -0.00969670 -0.00599795       0.016
   0.49276913 -0.00723087 -0.01092962       0.016
   0.49400205 -0.00599795 -0.01339545       0.016
   0.50599795  0.00599795  0.01339545       0.016
   0.50723087  0.00723087  0.01092962       0.016
   0.50969670  0.00969670  0.00599795       0.016
   0.51092962  0.01092962  0.00353212       0.016
   0.51446174  0.01446174  0.02185923       0.016
   0.51569465  0.01569465  0.01939340       0.016
   0.51816049  0.01816049  0.01446174       0.016
   0.51939340  0.01939340  0.01199591       0.016
 
 position of ions in fractional coordinates (direct lattice) 
   0.00000000  0.00000000  0.00000000
   0.50000000  0.50000000  0.50000000
   0.10956395  0.10956395  0.10956395
   0.89043605  0.89043605  0.89043605
 
 position of ions in cartesian coordinates  (Angst):
   0.00000000  0.00000000  0.00000000
   0.00000000  0.00000000  8.44241862
  -0.00000000  0.00000000  1.84996950
   0.00000000  0.00000001 15.03486773
 


--------------------------------------------------------------------------------------------------------


 k-point  1 :   0.5000 0.0000 0.0000  plane waves:    1140
 k-point  2 :   0.4957 0.0043 0.0000  plane waves:    1140
 k-point  3 :   0.4979 0.0021 0.0000  plane waves:    1140
 k-point  4 :   0.5021-0.0021 0.0000  plane waves:    1140
 k-point  5 :   0.5043-0.0043 0.0000  plane waves:    1140
 k-point  6 :   0.4975-0.0025 0.0049  plane waves:    1140
 k-point  7 :   0.4988-0.0012 0.0025  plane waves:    1140
 k-point  8 :   0.5012 0.0012-0.0025  plane waves:    1140
 k-point  9 :   0.5025 0.0025-0.0049  plane waves:    1140
 k-point 10 :   0.4831-0.0169-0.0169  plane waves:    1140
 k-point 11 :   0.4915-0.0085-0.0085  plane waves:    1140
 k-point 12 :   0.5085 0.0085 0.0085  plane waves:    1140
 k-point 13 :   0.5169 0.0169 0.0169  plane waves:    1140
 k-point 14 :   0.4933 0.0018 0.0049  plane waves:    1139
 k-point 15 :   0.4954-0.0003 0.0049  plane waves:    1140
 k-point 16 :   0.4997-0.0046 0.0049  plane waves:    1140
 k-point 17 :   0.5018-0.0067 0.0049  plane waves:    1138
 k-point 18 :   0.4945 0.0030 0.0025  plane waves:    1140
 k-point 19 :   0.4966 0.0009 0.0025  plane waves:    1140
 k-point 20 :   0.5009-0.0034 0.0025  plane waves:    1140
 k-point 21 :   0.5030-0.0055 0.0025  plane waves:    1140
 k-point 22 :   0.4970 0.0055-0.0025  plane waves:    1140
 k-point 23 :   0.4991 0.0034-0.0025  plane waves:    1140
 k-point 24 :   0.5034-0.0009-0.0025  plane waves:    1140
 k-point 25 :   0.5055-0.0030-0.0025  plane waves:    1140
 k-point 26 :   0.4982 0.0067-0.0049  plane waves:    1138
 k-point 27 :   0.5003 0.0046-0.0049  plane waves:    1140
 k-point 28 :   0.5046 0.0003-0.0049  plane waves:    1140
 k-point 29 :   0.5067-0.0018-0.0049  plane waves:    1139
 k-point 30 :   0.4788-0.0127-0.0169  plane waves:    1138
 k-point 31 :   0.4809-0.0148-0.0169  plane waves:    1138
 k-point 32 :   0.4852-0.0191-0.0169  plane waves:    1140
 k-point 33 :   0.4873-0.0212-0.0169  plane waves:    1139
 k-point 34 :   0.4873-0.0042-0.0085  plane waves:    1139
 k-point 35 :   0.4894-0.0063-0.0085  plane waves:    1140
 k-point 36 :   0.4937-0.0106-0.0085  plane waves:    1140
 k-point 37 :   0.4958-0.0127-0.0085  plane waves:    1140
 k-point 38 :   0.5042 0.0127 0.0085  plane waves:    1140
 k-point 39 :   0.5063 0.0106 0.0085  plane waves:    1140
 k-point 40 :   0.5106 0.0063 0.0085  plane waves:    1140
 k-point 41 :   0.5127 0.0042 0.0085  plane waves:    1139
 k-point 42 :   0.5127 0.0212 0.0169  plane waves:    1139
 k-point 43 :   0.5148 0.0191 0.0169  plane waves:    1140
 k-point 44 :   0.5191 0.0148 0.0169  plane waves:    1138
 k-point 45 :   0.5212 0.0127 0.0169  plane waves:    1138
 k-point 46 :   0.4806-0.0194-0.0120  plane waves:    1138
 k-point 47 :   0.4818-0.0182-0.0145  plane waves:    1139
 k-point 48 :   0.4843-0.0157-0.0194  plane waves:    1139
 k-point 49 :   0.4855-0.0145-0.0219  plane waves:    1139
 k-point 50 :   0.4891-0.0109-0.0035  plane waves:    1139
 k-point 51 :   0.4903-0.0097-0.0060  plane waves:    1140
 k-point 52 :   0.4928-0.0072-0.0109  plane waves:    1140
 k-point 53 :   0.4940-0.0060-0.0134  plane waves:    1139
 k-point 54 :   0.5060 0.0060 0.0134  plane waves:    1139
 k-point 55 :   0.5072 0.0072 0.0109  plane waves:    1140
 k-point 56 :   0.5097 0.0097 0.0060  plane waves:    1140
 k-point 57 :   0.5109 0.0109 0.0035  plane waves:    1139
 k-point 58 :   0.5145 0.0145 0.0219  plane waves:    1139
 k-point 59 :   0.5157 0.0157 0.0194  plane waves:    1139
 k-point 60 :   0.5182 0.0182 0.0145  plane waves:    1139
 k-point 61 :   0.5194 0.0194 0.0120  plane waves:    1138

 maximum and minimum number of plane-waves per node :      1140     1138

 maximum number of plane-waves:      1140
 maximum index in each direction: 
   IXMAX=   10   IYMAX=   11   IZMAX=   11
   IXMIN=  -11   IYMIN=  -11   IZMIN=  -11


 serial   3D FFT for wavefunctions
 parallel 3D FFT for charge:
    minimum data exchange during FFTs selected (reduces bandwidth)


 total amount of memory used by VASP MPI-rank0   114640. kBytes
=======================================================================

   base      :      30000. kBytes
   nonl-proj :      68500. kBytes
   fftplans  :       2983. kBytes
   grid      :       9252. kBytes
   one-center:        322. kBytes
   wavefun   :       3583. kBytes
 
     INWAV:  cpu time    0.0000: real time    0.0000
 initial charge density was supplied:
 number of electron      34.0000002 magnetization 
 keeping initial charge density in first step


--------------------------------------------------------------------------------------------------------


 Maximum index for augmentation-charges         8947 (set IRDMAX)


--------------------------------------------------------------------------------------------------------


 First call to EWALD:  gamma=   0.521
 Maximum number of real-space cells 4x 4x 4
 Maximum number of reciprocal cells 4x 4x 4

    FEWALD:  cpu time    0.0017: real time    0.0017


--------------------------------------- Iteration      1(   1)  ---------------------------------------


    POTLOK:  cpu time    0.0717: real time    0.0722
    SETDIJ:  cpu time    0.0149: real time    0.0150
     EDDAV:  cpu time    6.2590: real time    6.3135
       DOS:  cpu time    0.0010: real time    0.0010
    --------------------------------------------
      LOOP:  cpu time    6.3465: real time    6.4017

 eigenvalue-minimisations  :  6576
 total energy-change (2. order) : 0.3158741E+03  (-0.1799426E+04)
 number of electron      34.0000002 magnetization 
 augmentation part       34.0000002 magnetization 

 Free energy of the ion-electron system (eV)
  ---------------------------------------------------
  alpha Z        PSCENC =       167.28213848
  Ewald energy   TEWEN  =     -3351.06778565
  -Hartree energ DENC   =     -2400.81965511
  -exchange      EXHF   =         0.00000000
  -V(xc)+E(xc)   XCENC  =       180.92806670
  PAW double counting   =      5402.02430262    -5725.83564433
  entropy T*S    EENTRO =        -0.02472669
  eigenvalues    EBANDS =      -250.11363413
  atomic energy  EATOM  =      6293.50105541
  Solvation  Ediel_sol  =         0.00000000
  ---------------------------------------------------
  free energy    TOTEN  =       315.87411731 eV

  energy without entropy =      315.89884400  energy(sigma->0) =      315.88648065


--------------------------------------------------------------------------------------------------------




--------------------------------------- Iteration      1(   2)  ---------------------------------------


     EDDAV:  cpu time    6.6481: real time    6.7047
       DOS:  cpu time    0.0005: real time    0.0005
    --------------------------------------------
      LOOP:  cpu time    6.6486: real time    6.7052

 eigenvalue-minimisations  :  7080
 total energy-change (2. order) :-0.3249660E+03  (-0.3057696E+03)
 number of electron      34.0000002 magnetization 
 augmentation part       34.0000002 magnetization 

 Free energy of the ion-electron system (eV)
  ---------------------------------------------------
  alpha Z        PSCENC =       167.28213848
  Ewald energy   TEWEN  =     -3351.06778565
  -Hartree energ DENC   =     -2400.81965511
  -exchange      EXHF   =         0.00000000
  -V(xc)+E(xc)   XCENC  =       180.92806670
  PAW double counting   =      5402.02430262    -5725.83564433
  entropy T*S    EENTRO =        -0.00000000
  eigenvalues    EBANDS =      -575.10436720
  atomic energy  EATOM  =      6293.50105541
  Solvation  Ediel_sol  =         0.00000000
  ---------------------------------------------------
  free energy    TOTEN  =        -9.09188907 eV

  energy without entropy =       -9.09188907  energy(sigma->0) =       -9.09188907


--------------------------------------------------------------------------------------------------------




--------------------------------------- Iteration      1(   3)  ---------------------------------------


     EDDAV:  cpu time    6.4607: real time    6.5214
       DOS:  cpu time    0.0005: real time    0.0005
    --------------------------------------------
      LOOP:  cpu time    6.4612: real time    6.5219

 eigenvalue-minimisations  :  6756
 total energy-change (2. order) :-0.1750440E+02  (-0.1746239E+02)
 number of electron      34.0000002 magnetization 
 augmentation part       34.0000002 magnetization 

 Free energy of the ion-electron system (eV)
  ---------------------------------------------------
  alpha Z        PSCENC =       167.28213848
  Ewald energy   TEWEN  =     -3351.06778565
  -Hartree energ DENC   =     -2400.81965511
  -exchange      EXHF   =         0.00000000
  -V(xc)+E(xc)   XCENC  =       180.92806670
  PAW double counting   =      5402.02430262    -5725.83564433
  entropy T*S    EENTRO =        -0.00000000
  eigenvalues    EBANDS =      -592.60876421
  atomic energy  EATOM  =      6293.50105541
  Solvation  Ediel_sol  =         0.00000000
  ---------------------------------------------------
  free energy    TOTEN  =       -26.59628609 eV

  energy without entropy =      -26.59628609  energy(sigma->0) =      -26.59628609


--------------------------------------------------------------------------------------------------------




--------------------------------------- Iteration      1(   4)  ---------------------------------------


     EDDAV:  cpu time    7.0152: real time    7.0767
       DOS:  cpu time    0.0005: real time    0.0005
    --------------------------------------------
      LOOP:  cpu time    7.0157: real time    7.0772

 eigenvalue-minimisations  :  6648
 total energy-change (2. order) :-0.5052522E+00  (-0.5051459E+00)
 number of electron      34.0000002 magnetization 
 augmentation part       34.0000002 magnetization 

 Free energy of the ion-electron system (eV)
  ---------------------------------------------------
  alpha Z        PSCENC =       167.28213848
  Ewald energy   TEWEN  =     -3351.06778565
  -Hartree energ DENC   =     -2400.81965511
  -exchange      EXHF   =         0.00000000
  -V(xc)+E(xc)   XCENC  =       180.92806670
  PAW double counting   =      5402.02430262    -5725.83564433
  entropy T*S    EENTRO =        -0.00000000
  eigenvalues    EBANDS =      -593.11401646
  atomic energy  EATOM  =      6293.50105541
  Solvation  Ediel_sol  =         0.00000000
  ---------------------------------------------------
  free energy    TOTEN  =       -27.10153833 eV

  energy without entropy =      -27.10153833  energy(sigma->0) =      -27.10153833


--------------------------------------------------------------------------------------------------------




--------------------------------------- Iteration      1(   5)  ---------------------------------------


     EDDAV:  cpu time    5.7682: real time    5.8188
       DOS:  cpu time    0.0006: real time    0.0006
    --------------------------------------------
      LOOP:  cpu time    5.7688: real time    5.8194

 eigenvalue-minimisations  :  5412
 total energy-change (2. order) :-0.2506110E-01  (-0.2506044E-01)
 number of electron      34.0000002 magnetization 
 augmentation part       34.0000002 magnetization 

 Free energy of the ion-electron system (eV)
  ---------------------------------------------------
  alpha Z        PSCENC =       167.28213848
  Ewald energy   TEWEN  =     -3351.06778565
  -Hartree energ DENC   =     -2400.81965511
  -exchange      EXHF   =         0.00000000
  -V(xc)+E(xc)   XCENC  =       180.92806670
  PAW double counting   =      5402.02430262    -5725.83564433
  entropy T*S    EENTRO =        -0.00000000
  eigenvalues    EBANDS =      -593.13907756
  atomic energy  EATOM  =      6293.50105541
  Solvation  Ediel_sol  =         0.00000000
  ---------------------------------------------------
  free energy    TOTEN  =       -27.12659943 eV

  energy without entropy =      -27.12659943  energy(sigma->0) =      -27.12659943


--------------------------------------------------------------------------------------------------------




--------------------------------------- Iteration      1(   6)  ---------------------------------------


    EDDIAG:  cpu time    1.1859: real time    1.1978
  RMM-DIIS:  cpu time   10.1491: real time   10.2555
    ORTHCH:  cpu time    0.0341: real time    0.0344
       DOS:  cpu time    0.0006: real time    0.0006
    --------------------------------------------
      LOOP:  cpu time   11.3698: real time   11.4882

 eigenvalue-minimisations  :  7732
 total energy-change (2. order) :-0.5514978E-03  (-0.5514978E-03)
 number of electron      34.0000002 magnetization 
 augmentation part       34.0000002 magnetization 

 Free energy of the ion-electron system (eV)
  ---------------------------------------------------
  alpha Z        PSCENC =       167.28213848
  Ewald energy   TEWEN  =     -3351.06778565
  -Hartree energ DENC   =     -2400.81965511
  -exchange      EXHF   =         0.00000000
  -V(xc)+E(xc)   XCENC  =       180.92806670
  PAW double counting   =      5402.02430262    -5725.83564433
  entropy T*S    EENTRO =        -0.00000000
  eigenvalues    EBANDS =      -593.13962906
  atomic energy  EATOM  =      6293.50105541
  Solvation  Ediel_sol  =         0.00000000
  ---------------------------------------------------
  free energy    TOTEN  =       -27.12715093 eV

  energy without entropy =      -27.12715093  energy(sigma->0) =      -27.12715093


--------------------------------------------------------------------------------------------------------




--------------------------------------- Iteration      1(   7)  ---------------------------------------


    EDDIAG:  cpu time    1.0785: real time    1.0900
  RMM-DIIS:  cpu time    8.6633: real time    8.7376
    ORTHCH:  cpu time    0.0315: real time    0.0316
       DOS:  cpu time    0.0006: real time    0.0006
    --------------------------------------------
      LOOP:  cpu time    9.7739: real time    9.8597

 eigenvalue-minimisations  :  6576
 total energy-change (2. order) :-0.5179445E-03  (-0.2676959E-03)
 number of electron      34.0000002 magnetization 
 augmentation part       34.0000002 magnetization 

 Free energy of the ion-electron system (eV)
  ---------------------------------------------------
  alpha Z        PSCENC =       167.28213848
  Ewald energy   TEWEN  =     -3351.06778565
  -Hartree energ DENC   =     -2400.81965511
  -exchange      EXHF   =         0.00000000
  -V(xc)+E(xc)   XCENC  =       180.92806670
  PAW double counting   =      5402.02430262    -5725.83564433
  entropy T*S    EENTRO =        -0.00000000
  eigenvalues    EBANDS =      -593.14014700
  atomic energy  EATOM  =      6293.50105541
  Solvation  Ediel_sol  =         0.00000000
  ---------------------------------------------------
  free energy    TOTEN  =       -27.12766888 eV

  energy without entropy =      -27.12766888  energy(sigma->0) =      -27.12766888


--------------------------------------------------------------------------------------------------------




--------------------------------------- Iteration      1(   8)  ---------------------------------------


    EDDIAG:  cpu time    1.3704: real time    1.3844
  RMM-DIIS:  cpu time    8.1936: real time    8.2489
    ORTHCH:  cpu time    0.0397: real time    0.0399
       DOS:  cpu time    0.0007: real time    0.0007
    --------------------------------------------
      LOOP:  cpu time    9.6045: real time    9.6739

 eigenvalue-minimisations  :  6634
 total energy-change (2. order) :-0.1551552E-03  (-0.1231990E-03)
 number of electron      34.0000002 magnetization 
 augmentation part       34.0000002 magnetization 

 Free energy of the ion-electron system (eV)
  ---------------------------------------------------
  alpha Z        PSCENC =       167.28213848
  Ewald energy   TEWEN  =     -3351.06778565
  -Hartree energ DENC   =     -2400.81965511
  -exchange      EXHF   =         0.00000000
  -V(xc)+E(xc)   XCENC  =       180.92806670
  PAW double counting   =      5402.02430262    -5725.83564433
  entropy T*S    EENTRO =        -0.00000000
  eigenvalues    EBANDS =      -593.14030216
  atomic energy  EATOM  =      6293.50105541
  Solvation  Ediel_sol  =         0.00000000
  ---------------------------------------------------
  free energy    TOTEN  =       -27.12782403 eV

  energy without entropy =      -27.12782403  energy(sigma->0) =      -27.12782403


--------------------------------------------------------------------------------------------------------




--------------------------------------- Iteration      1(   9)  ---------------------------------------


    EDDIAG:  cpu time    1.5014: real time    1.5161
  RMM-DIIS:  cpu time    8.7849: real time    8.8479
    ORTHCH:  cpu time    0.0405: real time    0.0408
       DOS:  cpu time    0.0006: real time    0.0006
    --------------------------------------------
      LOOP:  cpu time   10.3274: real time   10.4054

 eigenvalue-minimisations  :  6526
 total energy-change (2. order) :-0.6308335E-04  (-0.4156236E-04)
 number of electron      34.0000002 magnetization 
 augmentation part       34.0000002 magnetization 

 Free energy of the ion-electron system (eV)
  ---------------------------------------------------
  alpha Z        PSCENC =       167.28213848
  Ewald energy   TEWEN  =     -3351.06778565
  -Hartree energ DENC   =     -2400.81965511
  -exchange      EXHF   =         0.00000000
  -V(xc)+E(xc)   XCENC  =       180.92806670
  PAW double counting   =      5402.02430262    -5725.83564433
  entropy T*S    EENTRO =        -0.00000000
  eigenvalues    EBANDS =      -593.14036524
  atomic energy  EATOM  =      6293.50105541
  Solvation  Ediel_sol  =         0.00000000
  ---------------------------------------------------
  free energy    TOTEN  =       -27.12788711 eV

  energy without entropy =      -27.12788711  energy(sigma->0) =      -27.12788711


--------------------------------------------------------------------------------------------------------




--------------------------------------- Iteration      1(  10)  ---------------------------------------


    EDDIAG:  cpu time    1.4517: real time    1.4660
  RMM-DIIS:  cpu time    8.0963: real time    8.1640
    ORTHCH:  cpu time    0.0383: real time    0.0387
       DOS:  cpu time    0.0008: real time    0.0008
    --------------------------------------------
      LOOP:  cpu time    9.5872: real time    9.6695

 eigenvalue-minimisations  :  6407
 total energy-change (2. order) :-0.2713883E-04  (-0.2068577E-04)
 number of electron      34.0000002 magnetization 
 augmentation part       34.0000002 magnetization 

 Free energy of the ion-electron system (eV)
  ---------------------------------------------------
  alpha Z        PSCENC =       167.28213848
  Ewald energy   TEWEN  =     -3351.06778565
  -Hartree energ DENC   =     -2400.81965511
  -exchange      EXHF   =         0.00000000
  -V(xc)+E(xc)   XCENC  =       180.92806670
  PAW double counting   =      5402.02430262    -5725.83564433
  entropy T*S    EENTRO =        -0.00000000
  eigenvalues    EBANDS =      -593.14039238
  atomic energy  EATOM  =      6293.50105541
  Solvation  Ediel_sol  =         0.00000000
  ---------------------------------------------------
  free energy    TOTEN  =       -27.12791425 eV

  energy without entropy =      -27.12791425  energy(sigma->0) =      -27.12791425


--------------------------------------------------------------------------------------------------------




--------------------------------------- Iteration      1(  11)  ---------------------------------------


    EDDIAG:  cpu time    1.4673: real time    1.4819
  RMM-DIIS:  cpu time    8.3104: real time    8.3707
    ORTHCH:  cpu time    0.0405: real time    0.0407
       DOS:  cpu time    0.0007: real time    0.0007
    --------------------------------------------
      LOOP:  cpu time    9.8189: real time    9.8940

 eigenvalue-minimisations  :  6334
 total energy-change (2. order) :-0.1567416E-04  (-0.1293517E-04)
 number of electron      34.0000002 magnetization 
 augmentation part       34.0000002 magnetization 

 Free energy of the ion-electron system (eV)
  ---------------------------------------------------
  alpha Z        PSCENC =       167.28213848
  Ewald energy   TEWEN  =     -3351.06778565
  -Hartree energ DENC   =     -2400.81965511
  -exchange      EXHF   =         0.00000000
  -V(xc)+E(xc)   XCENC  =       180.92806670
  PAW double counting   =      5402.02430262    -5725.83564433
  entropy T*S    EENTRO =        -0.00000000
  eigenvalues    EBANDS =      -593.14040805
  atomic energy  EATOM  =      6293.50105541
  Solvation  Ediel_sol  =         0.00000000
  ---------------------------------------------------
  free energy    TOTEN  =       -27.12792993 eV

  energy without entropy =      -27.12792993  energy(sigma->0) =      -27.12792993


--------------------------------------------------------------------------------------------------------




--------------------------------------- Iteration      1(  12)  ---------------------------------------


    EDDIAG:  cpu time    1.5313: real time    1.5459
  RMM-DIIS:  cpu time    7.7090: real time    7.7662
    ORTHCH:  cpu time    0.0401: real time    0.0403
       DOS:  cpu time    0.0007: real time    0.0007
    --------------------------------------------
      LOOP:  cpu time    9.2811: real time    9.3531

 eigenvalue-minimisations  :  6076
 total energy-change (2. order) :-0.1097730E-04  (-0.8375034E-05)
 number of electron      34.0000002 magnetization 
 augmentation part       34.0000002 magnetization 

 Free energy of the ion-electron system (eV)
  ---------------------------------------------------
  alpha Z        PSCENC =       167.28213848
  Ewald energy   TEWEN  =     -3351.06778565
  -Hartree energ DENC   =     -2400.81965511
  -exchange      EXHF   =         0.00000000
  -V(xc)+E(xc)   XCENC  =       180.92806670
  PAW double counting   =      5402.02430262    -5725.83564433
  entropy T*S    EENTRO =        -0.00000000
  eigenvalues    EBANDS =      -593.14041903
  atomic energy  EATOM  =      6293.50105541
  Solvation  Ediel_sol  =         0.00000000
  ---------------------------------------------------
  free energy    TOTEN  =       -27.12794090 eV

  energy without entropy =      -27.12794090  energy(sigma->0) =      -27.12794090


--------------------------------------------------------------------------------------------------------




--------------------------------------- Iteration      1(  13)  ---------------------------------------


    EDDIAG:  cpu time    1.4664: real time    1.4933
  RMM-DIIS:  cpu time    7.4237: real time    7.4846
    ORTHCH:  cpu time    0.0407: real time    0.0410
       DOS:  cpu time    0.0007: real time    0.0007
    --------------------------------------------
      LOOP:  cpu time    8.9315: real time    9.0196

 eigenvalue-minimisations  :  5716
 total energy-change (2. order) :-0.5145248E-05  (-0.3767541E-05)
 number of electron      34.0000002 magnetization 
 augmentation part       34.0000002 magnetization 

 Free energy of the ion-electron system (eV)
  ---------------------------------------------------
  alpha Z        PSCENC =       167.28213848
  Ewald energy   TEWEN  =     -3351.06778565
  -Hartree energ DENC   =     -2400.81965511
  -exchange      EXHF   =         0.00000000
  -V(xc)+E(xc)   XCENC  =       180.92806670
  PAW double counting   =      5402.02430262    -5725.83564433
  entropy T*S    EENTRO =        -0.00000000
  eigenvalues    EBANDS =      -593.14042418
  atomic energy  EATOM  =      6293.50105541
  Solvation  Ediel_sol  =         0.00000000
  ---------------------------------------------------
  free energy    TOTEN  =       -27.12794605 eV

  energy without entropy =      -27.12794605  energy(sigma->0) =      -27.12794605


--------------------------------------------------------------------------------------------------------




--------------------------------------- Iteration      1(  14)  ---------------------------------------


    EDDIAG:  cpu time    1.5062: real time    1.5230
  RMM-DIIS:  cpu time    6.7396: real time    6.8046
    ORTHCH:  cpu time    0.0408: real time    0.0410
       DOS:  cpu time    0.0007: real time    0.0007
    --------------------------------------------
      LOOP:  cpu time    8.2874: real time    8.3693

 eigenvalue-minimisations  :  5473
 total energy-change (2. order) :-0.3062019E-05  (-0.2225977E-05)
 number of electron      34.0000002 magnetization 
 augmentation part       34.0000002 magnetization 

 Free energy of the ion-electron system (eV)
  ---------------------------------------------------
  alpha Z        PSCENC =       167.28213848
  Ewald energy   TEWEN  =     -3351.06778565
  -Hartree energ DENC   =     -2400.81965511
  -exchange      EXHF   =         0.00000000
  -V(xc)+E(xc)   XCENC  =       180.92806670
  PAW double counting   =      5402.02430262    -5725.83564433
  entropy T*S    EENTRO =        -0.00000000
  eigenvalues    EBANDS =      -593.14042724
  atomic energy  EATOM  =      6293.50105541
  Solvation  Ediel_sol  =         0.00000000
  ---------------------------------------------------
  free energy    TOTEN  =       -27.12794911 eV

  energy without entropy =      -27.12794911  energy(sigma->0) =      -27.12794911


--------------------------------------------------------------------------------------------------------




--------------------------------------- Iteration      1(  15)  ---------------------------------------


    EDDIAG:  cpu time    1.5142: real time    1.5297
  RMM-DIIS:  cpu time    6.4242: real time    6.4653
    ORTHCH:  cpu time    0.0360: real time    0.0362
       DOS:  cpu time    0.0007: real time    0.0007
    --------------------------------------------
      LOOP:  cpu time    7.9751: real time    8.0318

 eigenvalue-minimisations  :  5207
 total energy-change (2. order) :-0.1683047E-05  (-0.1022481E-05)
 number of electron      34.0000002 magnetization 
 augmentation part       34.0000002 magnetization 

 Free energy of the ion-electron system (eV)
  ---------------------------------------------------
  alpha Z        PSCENC =       167.28213848
  Ewald energy   TEWEN  =     -3351.06778565
  -Hartree energ DENC   =     -2400.81965511
  -exchange      EXHF   =         0.00000000
  -V(xc)+E(xc)   XCENC  =       180.92806670
  PAW double counting   =      5402.02430262    -5725.83564433
  entropy T*S    EENTRO =        -0.00000000
  eigenvalues    EBANDS =      -593.14042892
  atomic energy  EATOM  =      6293.50105541
  Solvation  Ediel_sol  =         0.00000000
  ---------------------------------------------------
  free energy    TOTEN  =       -27.12795079 eV

  energy without entropy =      -27.12795079  energy(sigma->0) =      -27.12795079


--------------------------------------------------------------------------------------------------------




--------------------------------------- Iteration      1(  16)  ---------------------------------------


    EDDIAG:  cpu time    1.5618: real time    1.5778
  RMM-DIIS:  cpu time    5.9708: real time    6.0135
    ORTHCH:  cpu time    0.0306: real time    0.0307
       DOS:  cpu time    0.0006: real time    0.0006
    --------------------------------------------
      LOOP:  cpu time    7.5637: real time    7.6226

 eigenvalue-minimisations  :  4942
 total energy-change (2. order) :-0.8944780E-06  (-0.7747804E-06)
 number of electron      34.0000002 magnetization 
 augmentation part       34.0000002 magnetization 

 Free energy of the ion-electron system (eV)
  ---------------------------------------------------
  alpha Z        PSCENC =       167.28213848
  Ewald energy   TEWEN  =     -3351.06778565
  -Hartree energ DENC   =     -2400.81965511
  -exchange      EXHF   =         0.00000000
  -V(xc)+E(xc)   XCENC  =       180.92806670
  PAW double counting   =      5402.02430262    -5725.83564433
  entropy T*S    EENTRO =        -0.00000000
  eigenvalues    EBANDS =      -593.14042982
  atomic energy  EATOM  =      6293.50105541
  Solvation  Ediel_sol  =         0.00000000
  ---------------------------------------------------
  free energy    TOTEN  =       -27.12795169 eV

  energy without entropy =      -27.12795169  energy(sigma->0) =      -27.12795169


--------------------------------------------------------------------------------------------------------




--------------------------------------- Iteration      1(  17)  ---------------------------------------


    EDDIAG:  cpu time    1.3201: real time    1.3332
  RMM-DIIS:  cpu time    6.6663: real time    6.7358
    ORTHCH:  cpu time    0.0284: real time    0.0285
       DOS:  cpu time    0.0005: real time    0.0005
    --------------------------------------------
      LOOP:  cpu time    8.0153: real time    8.0980

 eigenvalue-minimisations  :  4704
 total energy-change (2. order) :-0.6814962E-06  (-0.4979579E-06)
 number of electron      34.0000002 magnetization 
 augmentation part       34.0000002 magnetization 

 Free energy of the ion-electron system (eV)
  ---------------------------------------------------
  alpha Z        PSCENC =       167.28213848
  Ewald energy   TEWEN  =     -3351.06778565
  -Hartree energ DENC   =     -2400.81965511
  -exchange      EXHF   =         0.00000000
  -V(xc)+E(xc)   XCENC  =       180.92806670
  PAW double counting   =      5402.02430262    -5725.83564433
  entropy T*S    EENTRO =        -0.00000000
  eigenvalues    EBANDS =      -593.14043050
  atomic energy  EATOM  =      6293.50105541
  Solvation  Ediel_sol  =         0.00000000
  ---------------------------------------------------
  free energy    TOTEN  =       -27.12795237 eV

  energy without entropy =      -27.12795237  energy(sigma->0) =      -27.12795237


--------------------------------------------------------------------------------------------------------




--------------------------------------- Iteration      1(  18)  ---------------------------------------


    EDDIAG:  cpu time    1.2781: real time    1.2914
  RMM-DIIS:  cpu time    5.6287: real time    5.6838
    ORTHCH:  cpu time    0.0293: real time    0.0295
       DOS:  cpu time    0.0005: real time    0.0006
    --------------------------------------------
      LOOP:  cpu time    6.9366: real time    7.0052

 eigenvalue-minimisations  :  4573
 total energy-change (2. order) :-0.3558034E-06  (-0.1890476E-06)
 number of electron      34.0000002 magnetization 
 augmentation part       34.0000002 magnetization 

 Free energy of the ion-electron system (eV)
  ---------------------------------------------------
  alpha Z        PSCENC =       167.28213848
  Ewald energy   TEWEN  =     -3351.06778565
  -Hartree energ DENC   =     -2400.81965511
  -exchange      EXHF   =         0.00000000
  -V(xc)+E(xc)   XCENC  =       180.92806670
  PAW double counting   =      5402.02430262    -5725.83564433
  entropy T*S    EENTRO =        -0.00000000
  eigenvalues    EBANDS =      -593.14043085
  atomic energy  EATOM  =      6293.50105541
  Solvation  Ediel_sol  =         0.00000000
  ---------------------------------------------------
  free energy    TOTEN  =       -27.12795273 eV

  energy without entropy =      -27.12795273  energy(sigma->0) =      -27.12795273


--------------------------------------------------------------------------------------------------------




--------------------------------------- Iteration      1(  19)  ---------------------------------------


    EDDIAG:  cpu time    1.5265: real time    1.5419
  RMM-DIIS:  cpu time    5.2632: real time    5.3038
    ORTHCH:  cpu time    0.0354: real time    0.0356
       DOS:  cpu time    0.0006: real time    0.0006
    --------------------------------------------
      LOOP:  cpu time    6.8257: real time    6.8819

 eigenvalue-minimisations  :  4504
 total energy-change (2. order) :-0.1715380E-06  (-0.1398089E-06)
 number of electron      34.0000002 magnetization 
 augmentation part       34.0000002 magnetization 

 Free energy of the ion-electron system (eV)
  ---------------------------------------------------
  alpha Z        PSCENC =       167.28213848
  Ewald energy   TEWEN  =     -3351.06778565
  -Hartree energ DENC   =     -2400.81965511
  -exchange      EXHF   =         0.00000000
  -V(xc)+E(xc)   XCENC  =       180.92806670
  PAW double counting   =      5402.02430262    -5725.83564433
  entropy T*S    EENTRO =        -0.00000000
  eigenvalues    EBANDS =      -593.14043103
  atomic energy  EATOM  =      6293.50105541
  Solvation  Ediel_sol  =         0.00000000
  ---------------------------------------------------
  free energy    TOTEN  =       -27.12795290 eV

  energy without entropy =      -27.12795290  energy(sigma->0) =      -27.12795290


--------------------------------------------------------------------------------------------------------




--------------------------------------- Iteration      1(  20)  ---------------------------------------


    EDDIAG:  cpu time    1.5186: real time    1.5342
  RMM-DIIS:  cpu time    6.3790: real time    6.4302
    ORTHCH:  cpu time    0.0261: real time    0.0263
       DOS:  cpu time    0.0005: real time    0.0005
    --------------------------------------------
      LOOP:  cpu time    7.9242: real time    7.9911

 eigenvalue-minimisations  :  4459
 total energy-change (2. order) :-0.1392509E-06  (-0.1063856E-06)
 number of electron      34.0000002 magnetization 
 augmentation part       34.0000002 magnetization 

 Free energy of the ion-electron system (eV)
  ---------------------------------------------------
  alpha Z        PSCENC =       167.28213848
  Ewald energy   TEWEN  =     -3351.06778565
  -Hartree energ DENC   =     -2400.81965511
  -exchange      EXHF   =         0.00000000
  -V(xc)+E(xc)   XCENC  =       180.92806670
  PAW double counting   =      5402.02430262    -5725.83564433
  entropy T*S    EENTRO =        -0.00000000
  eigenvalues    EBANDS =      -593.14043117
  atomic energy  EATOM  =      6293.50105541
  Solvation  Ediel_sol  =         0.00000000
  ---------------------------------------------------
  free energy    TOTEN  =       -27.12795304 eV

  energy without entropy =      -27.12795304  energy(sigma->0) =      -27.12795304


--------------------------------------------------------------------------------------------------------




--------------------------------------- Iteration      1(  21)  ---------------------------------------


    EDDIAG:  cpu time    0.8713: real time    0.8786
  RMM-DIIS:  cpu time    6.0165: real time    6.0637
    ORTHCH:  cpu time    0.0411: real time    0.0413
       DOS:  cpu time    0.0007: real time    0.0007
    --------------------------------------------
      LOOP:  cpu time    6.9297: real time    6.9844

 eigenvalue-minimisations  :  4388
 total energy-change (2. order) :-0.6873870E-07  (-0.3707366E-07)
 number of electron      34.0000002 magnetization 
 augmentation part       34.0000002 magnetization 

 Free energy of the ion-electron system (eV)
  ---------------------------------------------------
  alpha Z        PSCENC =       167.28213848
  Ewald energy   TEWEN  =     -3351.06778565
  -Hartree energ DENC   =     -2400.81965511
  -exchange      EXHF   =         0.00000000
  -V(xc)+E(xc)   XCENC  =       180.92806670
  PAW double counting   =      5402.02430262    -5725.83564433
  entropy T*S    EENTRO =        -0.00000000
  eigenvalues    EBANDS =      -593.14043123
  atomic energy  EATOM  =      6293.50105541
  Solvation  Ediel_sol  =         0.00000000
  ---------------------------------------------------
  free energy    TOTEN  =       -27.12795311 eV

  energy without entropy =      -27.12795311  energy(sigma->0) =      -27.12795311


--------------------------------------------------------------------------------------------------------




 average (electrostatic) potential at core
  the test charge radii are     0.8846  1.0406  0.7215
  (the norm of the test charge is              1.0000)
       1 -76.0605       2 -50.7235       3 -69.6804       4 -69.6804
 
 
 
 E-fermi :   6.7961     XC(G=0): -11.9989     alpha+bet :-13.2687


 k-point     1 :       0.5000    0.0000    0.0000
  band No.  band energies     occupation 
      1    -105.4652      2.00000
      2     -63.1592      2.00000
      3     -62.9724      2.00000
      4     -62.9562      2.00000
      5     -13.5039      2.00000
      6     -12.8146      2.00000
      7      -2.3011      2.00000
      8      -1.8668      2.00000
      9       0.2995      2.00000
     10       1.0262      2.00000
     11       1.9181      2.00000
     12       2.6360      2.00000
     13       3.1557      2.00000
     14       4.2684      2.00000
     15       4.5727      2.00000
     16       4.8364      2.00000
     17       5.7581      2.00000
     18       8.3180      0.00000
     19      11.8964      0.00000
     20      13.5608      0.00000
     21      16.8110      0.00000
     22      17.2929      0.00000
     23      18.2095      0.00000
     24      21.5742      0.00000
     25      21.0868      0.00000
     26      22.9129      0.00000
     27      25.7039      0.00000
     28      28.6394      0.00000
     29      28.8935      0.00000
     30      24.4046      0.00000
     31      31.3482      0.00000
     32      18.8336      0.00000
     33      34.3589      0.00000
     34      35.7626      0.00000
     35      32.5106      0.00000
     36      30.7093      0.00000

 k-point     2 :       0.4957    0.0043    0.0000
  band No.  band energies     occupation 
      1    -105.4652      2.00000
      2     -63.1592      2.00000
      3     -62.9724      2.00000
      4     -62.9562      2.00000
      5     -13.5050      2.00000
      6     -12.8142      2.00000
      7      -2.2996      2.00000
      8      -1.8661      2.00000
      9       0.2993      2.00000
     10       1.0255      2.00000
     11       1.9190      2.00000
     12       2.6353      2.00000
     13       3.1564      2.00000
     14       4.2686      2.00000
     15       4.5727      2.00000
     16       4.8358      2.00000
     17       5.7552      2.00000
     18       8.3195      0.00000
     19      11.9003      0.00000
     20      13.5625      0.00000
     21      16.8113      0.00000
     22      17.2922      0.00000
     23      18.2072      0.00000
     24      21.5927      0.00000
     25      20.6499      0.00000
     26      22.9120      0.00000
     27      20.9083      0.00000
     28      25.5479      0.00000
     29      28.6249      0.00000
     30      28.8938      0.00000
     31      31.3366      0.00000
     32      31.4187      0.00000
     33      33.0592      0.00000
     34      35.0206      0.00000
     35      34.7066      0.00000
     36      37.8116      0.00000

 k-point     3 :       0.4979    0.0021    0.0000
  band No.  band energies     occupation 
      1    -105.4652      2.00000
      2     -63.1592      2.00000
      3     -62.9724      2.00000
      4     -62.9562      2.00000
      5     -13.5042      2.00000
      6     -12.8145      2.00000
      7      -2.3007      2.00000
      8      -1.8666      2.00000
      9       0.2994      2.00000
     10       1.0260      2.00000
     11       1.9183      2.00000
     12       2.6358      2.00000
     13       3.1559      2.00000
     14       4.2684      2.00000
     15       4.5727      2.00000
     16       4.8363      2.00000
     17       5.7573      2.00000
     18       8.3184      0.00000
     19      11.8973      0.00000
     20      13.5612      0.00000
     21      16.8111      0.00000
     22      17.2927      0.00000
     23      18.2089      0.00000
     24      21.5805      0.00000
     25      20.8283      0.00000
     26      22.9087      0.00000
     27      23.6517      0.00000
     28      28.6358      0.00000
     29      28.8936      0.00000
     30      31.3361      0.00000
     31      31.4187      0.00000
     32      33.0520      0.00000
     33      33.6749      0.00000
     34      36.7480      0.00000
     35      31.4676      0.00000
     36      38.6962      0.00000

 k-point     4 :       0.5021   -0.0021    0.0000
  band No.  band energies     occupation 
      1    -105.4652      2.00000
      2     -63.1592      2.00000
      3     -62.9724      2.00000
      4     -62.9562      2.00000
      5     -13.5042      2.00000
      6     -12.8145      2.00000
      7      -2.3007      2.00000
      8      -1.8666      2.00000
      9       0.2994      2.00000
     10       1.0260      2.00000
     11       1.9183      2.00000
     12       2.6358      2.00000
     13       3.1559      2.00000
     14       4.2684      2.00000
     15       4.5727      2.00000
     16       4.8363      2.00000
     17       5.7573      2.00000
     18       8.3184      0.00000
     19      11.8973      0.00000
     20      13.5612      0.00000
     21      16.8111      0.00000
     22      17.2927      0.00000
     23      18.2073      0.00000
     24      18.7393      0.00000
     25      21.5802      0.00000
     26      21.4425      0.00000
     27      22.6956      0.00000
     28      25.7060      0.00000
     29      28.6358      0.00000
     30      28.8936      0.00000
     31      30.2141      0.00000
     32      30.6454      0.00000
     33      33.0028      0.00000
     34      33.0599      0.00000
     35      20.8964      0.00000
     36      35.7219      0.00000

 k-point     5 :       0.5043   -0.0043    0.0000
  band No.  band energies     occupation 
      1    -105.4652      2.00000
      2     -63.1592      2.00000
      3     -62.9724      2.00000
      4     -62.9562      2.00000
      5     -13.5050      2.00000
      6     -12.8142      2.00000
      7      -2.2996      2.00000
      8      -1.8661      2.00000
      9       0.2993      2.00000
     10       1.0255      2.00000
     11       1.9190      2.00000
     12       2.6353      2.00000
     13       3.1564      2.00000
     14       4.2686      2.00000
     15       4.5727      2.00000
     16       4.8358      2.00000
     17       5.7552      2.00000
     18       8.3195      0.00000
     19      11.9003      0.00000
     20      13.5625      0.00000
     21      16.8113      0.00000
     22      17.2922      0.00000
     23      18.2070      0.00000
     24      21.5932      0.00000
     25      22.9130      0.00000
     26      25.7084      0.00000
     27      28.6136      0.00000
     28      28.8359      0.00000
     29      14.3891      0.00000
     30      31.3360      0.00000
     31      31.4186      0.00000
     32      18.6792      0.00000
     33      33.0094      0.00000
     34      33.0650      0.00000
     35      35.7721      0.00000
     36      39.3342      0.00000

 k-point     6 :       0.4975   -0.0025    0.0049
  band No.  band energies     occupation 
      1    -105.4652      2.00000
      2     -63.1592      2.00000
      3     -62.9724      2.00000
      4     -62.9562      2.00000
      5     -13.5040      2.00000
      6     -12.8144      2.00000
      7      -2.3001      2.00000
      8      -1.8662      2.00000
      9       0.2996      2.00000
     10       1.0231      2.00000
     11       1.9196      2.00000
     12       2.6334      2.00000
     13       3.1573      2.00000
     14       4.2686      2.00000
     15       4.5725      2.00000
     16       4.8355      2.00000
     17       5.7571      2.00000
     18       8.3201      0.00000
     19      11.8987      0.00000
     20      13.5638      0.00000
     21      16.8121      0.00000
     22      17.2926      0.00000
     23      18.2080      0.00000
     24      21.2828      0.00000
     25      21.6092      0.00000
     26      22.9127      0.00000
     27      25.7140      0.00000
     28      12.4777      0.00000
     29      28.6278      0.00000
     30      28.8835      0.00000
     31      16.8328      0.00000
     32      31.3474      0.00000
     33      31.4172      0.00000
     34      32.9575      0.00000
     35      33.0037      0.00000
     36      35.7224      0.00000

 k-point     7 :       0.4988   -0.0012    0.0025
  band No.  band energies     occupation 
      1    -105.4652      2.00000
      2     -63.1592      2.00000
      3     -62.9724      2.00000
      4     -62.9562      2.00000
      5     -13.5039      2.00000
      6     -12.8145      2.00000
      7      -2.3009      2.00000
      8      -1.8666      2.00000
      9       0.2995      2.00000
     10       1.0254      2.00000
     11       1.9185      2.00000
     12       2.6353      2.00000
     13       3.1561      2.00000
     14       4.2684      2.00000
     15       4.5727      2.00000
     16       4.8362      2.00000
     17       5.7578      2.00000
     18       8.3185      0.00000
     19      11.8969      0.00000
     20      13.5615      0.00000
[...]
     17       5.7563      2.00000
     18       8.3217      0.00000
     19      11.8983      0.00000
     20      13.5640      0.00000
     21      16.8093      0.00000
     22      17.2934      0.00000
     23      18.2082      0.00000
     24      19.8942      0.00000
     25      21.6089      0.00000
     26      16.2482      0.00000
     27      22.9136      0.00000
     28      25.7086      0.00000
     29      21.5966      0.00000
     30      28.6111      0.00000
     31      28.9008      0.00000
     32      31.3172      0.00000
     33      31.4491      0.00000
     34      33.0422      0.00000
     35      34.1089      0.00000
     36      35.9993      0.00000

 k-point    58 :       0.5145    0.0145    0.0219
  band No.  band energies     occupation 
      1    -105.4652      2.00000
      2     -63.1591      2.00000
      3     -62.9724      2.00000
      4     -62.9561      2.00000
      5     -13.5035      2.00000
      6     -12.8150      2.00000
      7      -2.3007      2.00000
      8      -1.8647      2.00000
      9       0.3013      2.00000
     10       1.0236      2.00000
     11       1.9159      2.00000
     12       2.6319      2.00000
     13       3.1573      2.00000
     14       4.2691      2.00000
     15       4.5736      2.00000
     16       4.8355      2.00000
     17       5.7582      2.00000
     18       8.3184      0.00000
     19      11.9028      0.00000
     20      13.5640      0.00000
     21      16.8054      0.00000
     22      17.2960      0.00000
     23      18.2036      0.00000
     24      21.2875      0.00000
     25      21.0311      0.00000
     26      21.6245      0.00000
     27      25.6026      0.00000
     28      28.6092      0.00000
     29      28.9049      0.00000
     30      31.2302      0.00000
     31      31.5331      0.00000
     32      25.1358      0.00000
     33      33.0062      0.00000
     34      33.0598      0.00000
     35      22.0587      0.00000
     36      35.7980      0.00000

 k-point    59 :       0.5157    0.0157    0.0194
  band No.  band energies     occupation 
      1    -105.4652      2.00000
      2     -63.1591      2.00000
      3     -62.9724      2.00000
      4     -62.9561      2.00000
      5     -13.5035      2.00000
      6     -12.8150      2.00000
      7      -2.3016      2.00000
      8      -1.8652      2.00000
      9       0.3009      2.00000
     10       1.0259      2.00000
     11       1.9154      2.00000
     12       2.6339      2.00000
     13       3.1561      2.00000
     14       4.2689      2.00000
     15       4.5738      2.00000
     16       4.8362      2.00000
     17       5.7582      2.00000
     18       8.3181      0.00000
     19      11.9001      0.00000
     20      13.5618      0.00000
     21      16.8039      0.00000
     22      17.2961      0.00000
     23      18.2062      0.00000
     24      20.1108      0.00000
     25      21.5990      0.00000
     26      20.5406      0.00000
     27      22.9157      0.00000
     28      25.7128      0.00000
     29      28.6109      0.00000
     30      28.9197      0.00000
     31      31.2286      0.00000
     32      33.0075      0.00000
     33      33.0702      0.00000
     34      32.7030      0.00000
     35      35.0097      0.00000
     36      30.0068      0.00000

 k-point    60 :       0.5182    0.0182    0.0145
  band No.  band energies     occupation 
      1    -105.4652      2.00000
      2     -63.1591      2.00000
      3     -62.9724      2.00000
      4     -62.9561      2.00000
      5     -13.5037      2.00000
      6     -12.8147      2.00000
      7      -2.3017      2.00000
      8      -1.8654      2.00000
      9       0.3002      2.00000
     10       1.0259      2.00000
     11       1.9169      2.00000
     12       2.6340      2.00000
     13       3.1561      2.00000
     14       4.2686      2.00000
     15       4.5737      2.00000
     16       4.8362      2.00000
     17       5.7567      2.00000
     18       8.3207      0.00000
     19      11.8982      0.00000
     20      13.5620      0.00000
     21      16.8024      0.00000
     22      17.2959      0.00000
     23      18.2070      0.00000
     24      21.3003      0.00000
     25      21.5925      0.00000
     26      22.9158      0.00000
     27      25.7132      0.00000
     28      28.5972      0.00000
     29      24.1278      0.00000
     30      28.9331      0.00000
     31      28.7961      0.00000
     32      31.1996      0.00000
     33      28.7858      0.00000
     34      33.1235      0.00000
     35      35.7302      0.00000
     36      30.3871      0.00000

 k-point    61 :       0.5194    0.0194    0.0120
  band No.  band energies     occupation 
      1    -105.4652      2.00000
      2     -63.1591      2.00000
      3     -62.9724      2.00000
      4     -62.9561      2.00000
      5     -13.5040      2.00000
      6     -12.8145      2.00000
      7      -2.3009      2.00000
      8      -1.8651      2.00000
      9       0.3000      2.00000
     10       1.0236      2.00000
     11       1.9187      2.00000
     12       2.6321      2.00000
     13       3.1574      2.00000
     14       4.2687      2.00000
     15       4.5735      2.00000
     16       4.8355      2.00000
     17       5.7553      2.00000
     18       8.3237      0.00000
     19      11.8990      0.00000
     20      13.5644      0.00000
     21      16.8025      0.00000
     22      17.2956      0.00000
     23      18.2070      0.00000
     24      21.2866      0.00000
     25      21.6133      0.00000
     26      19.7828      0.00000
     27      22.9099      0.00000
     28      25.7171      0.00000
     29      28.5823      0.00000
     30      28.9256      0.00000
     31      16.1274      0.00000
     32      31.5092      0.00000
     33      33.0177      0.00000
     34      33.0643      0.00000
     35      35.8224      0.00000
     36      30.2236      0.00000


--------------------------------------------------------------------------------------------------------


 soft charge-density along one line, spin component           1
         0         1         2         3         4         5         6         7         8         9
 total charge-density along one line
 
 pseudopotential strength for first ion, spin component:           1
-79.473  14.513 -15.550   0.000  -0.000  -0.000   0.000  -0.000
 14.513   3.471  -6.472  -0.000   0.000   0.000  -0.000   0.000
-15.550  -6.472  13.141   0.000  -0.000  -0.000   0.000  -0.000
  0.000  -0.000   0.000 -68.503   0.000   0.000 -59.778   0.000
 -0.000   0.000  -0.000   0.000 -68.557   0.000   0.000 -59.824
 -0.000   0.000  -0.000   0.000   0.000 -68.503   0.000   0.000
  0.000  -0.000   0.000 -59.778   0.000   0.000 -52.230   0.000
 -0.000   0.000  -0.000   0.000 -59.824   0.000   0.000 -52.269
 -0.000   0.000  -0.000   0.000   0.000 -59.778   0.000   0.000
  0.000   0.000  -0.000  10.799   0.000   0.000   7.081   0.000
 -0.000  -0.000   0.000   0.000  10.705   0.000   0.000   6.998
 -0.000  -0.000   0.000   0.000   0.000  10.799   0.000   0.000
  0.000  -0.000  -0.000  -0.000   0.000   0.000  -0.000   0.000
  0.000  -0.000   0.000  -0.000   0.000   0.000  -0.000   0.000
 -0.029   0.015   0.006   0.000  -0.000   0.000   0.000  -0.000
  0.000  -0.000  -0.000   0.000  -0.000  -0.000   0.000  -0.000
  0.000  -0.000   0.000  -0.000   0.000  -0.000  -0.000   0.000
 -0.000  -0.000   0.000   0.000  -0.000  -0.000   0.000  -0.000
 -0.000   0.000  -0.000   0.000  -0.000  -0.000   0.000  -0.000
  0.063   0.006  -0.035  -0.000   0.000  -0.000  -0.000   0.000
 -0.000   0.000   0.000  -0.000   0.000   0.000  -0.000   0.000
 -0.000   0.000  -0.000   0.000  -0.000   0.000   0.000  -0.000
  0.000   0.000  -0.000  -0.000   0.000   0.000  -0.000   0.000
  0.000  -0.000   0.000  -0.000   0.000   0.000  -0.000   0.000
 -0.114  -0.031   0.078   0.000  -0.000   0.000   0.000  -0.000
  0.000   0.000  -0.000   0.000  -0.000  -0.000   0.000  -0.000
  0.000  -0.000   0.000  -0.000   0.000  -0.000  -0.000   0.000
  0.000  -0.000  -0.000   0.000   0.000   0.000   0.000   0.000
  0.000  -0.000  -0.000   0.000   0.000   0.000   0.000   0.000
  0.000  -0.000  -0.000   0.003   0.000  -0.000   0.003   0.000
  0.000  -0.000  -0.000  -0.000   0.002  -0.000  -0.000   0.003
 -0.000   0.000   0.000  -0.000   0.000   0.003  -0.000   0.000
  0.000  -0.000  -0.000   0.000   0.000   0.000   0.000   0.000
  0.000  -0.000  -0.000  -0.000   0.000   0.000  -0.000   0.000
 -0.000   0.000  -0.000  -0.000  -0.000  -0.000  -0.000  -0.000
 -0.000   0.000  -0.000  -0.000  -0.000  -0.000  -0.000  -0.000
 -0.000   0.000  -0.000  -0.004  -0.000   0.000  -0.005  -0.000
 -0.000   0.000  -0.000   0.000  -0.000   0.000   0.000  -0.003
  0.000  -0.000   0.000   0.000  -0.000  -0.004   0.000  -0.000
 -0.000   0.000  -0.000  -0.000  -0.000  -0.000  -0.000  -0.000
 -0.000   0.000  -0.000   0.000  -0.000  -0.000   0.000  -0.000
 total augmentation occupancy for first ion, spin component:           1
  2.000   0.000   0.000   0.000   0.000   0.000   0.000   0.000   0.000   0.000   0.000   0.000   0.000   0.000   0.000   0.000
  0.000   1.000   0.000   0.000   0.000   0.000   0.000   0.000   0.000   0.000   0.000   0.000   0.000   0.000   0.000   0.000
  0.000   0.000   0.000   0.000   0.000   0.000   0.000   0.000   0.000   0.000   0.000   0.000   0.000   0.000   0.000   0.000
  0.000   0.000   0.000   2.000   0.000   0.000   0.000   0.000   0.000   0.000   0.000   0.000   0.000   0.000   0.000   0.000
  0.000   0.000   0.000   0.000   2.000   0.000   0.000   0.000   0.000   0.000   0.000   0.000   0.000   0.000   0.000   0.000
  0.000   0.000   0.000   0.000   0.000   2.000   0.000   0.000   0.000   0.000   0.000   0.000   0.000   0.000   0.000   0.000
  0.000   0.000   0.000   0.000   0.000   0.000   0.000   0.000   0.000   0.000   0.000   0.000   0.000   0.000   0.000   0.000
  0.000   0.000   0.000   0.000   0.000   0.000   0.000   0.000   0.000   0.000   0.000   0.000   0.000   0.000   0.000   0.000
  0.000   0.000   0.000   0.000   0.000   0.000   0.000   0.000   0.000   0.000   0.000   0.000   0.000   0.000   0.000   0.000
  0.000   0.000   0.000   0.000   0.000   0.000   0.000   0.000   0.000   0.000   0.000   0.000   0.000   0.000   0.000   0.000
  0.000   0.000   0.000   0.000   0.000   0.000   0.000   0.000   0.000   0.000   0.000   0.000   0.000   0.000   0.000   0.000
  0.000   0.000   0.000   0.000   0.000   0.000   0.000   0.000   0.000   0.000   0.000   0.000   0.000   0.000   0.000   0.000
  0.000   0.000   0.000   0.000   0.000   0.000   0.000   0.000   0.000   0.000   0.000   0.000   2.000   0.000   0.000   0.000
  0.000   0.000   0.000   0.000   0.000   0.000   0.000   0.000   0.000   0.000   0.000   0.000   0.000   2.000   0.000   0.000
  0.000   0.000   0.000   0.000   0.000   0.000   0.000   0.000   0.000   0.000   0.000   0.000   0.000   0.000   2.000   0.000
  0.000   0.000   0.000   0.000   0.000   0.000   0.000   0.000   0.000   0.000   0.000   0.000   0.000   0.000   0.000   2.000
  0.000   0.000   0.000   0.000   0.000   0.000   0.000   0.000   0.000   0.000   0.000   0.000   0.000   0.000   0.000   0.000
  0.000   0.000   0.000   0.000   0.000   0.000   0.000   0.000   0.000   0.000   0.000   0.000   0.000   0.000   0.000   0.000
  0.000   0.000   0.000   0.000   0.000   0.000   0.000   0.000   0.000   0.000   0.000   0.000   0.000   0.000   0.000   0.000
  0.000   0.000   0.000   0.000   0.000   0.000   0.000   0.000   0.000   0.000   0.000   0.000   0.000   0.000   0.000   0.000
  0.000   0.000   0.000   0.000   0.000   0.000   0.000   0.000   0.000   0.000   0.000   0.000   0.000   0.000   0.000   0.000
  0.000   0.000   0.000   0.000   0.000   0.000   0.000   0.000   0.000   0.000   0.000   0.000   0.000   0.000   0.000   0.000
  0.000   0.000   0.000   0.000   0.000   0.000   0.000   0.000   0.000   0.000   0.000   0.000   0.000   0.000   0.000   0.000
  0.000   0.000   0.000   0.000   0.000   0.000   0.000   0.000   0.000   0.000   0.000   0.000   0.000   0.000   0.000   0.000
  0.000   0.000   0.000   0.000   0.000   0.000   0.000   0.000   0.000   0.000   0.000   0.000   0.000   0.000   0.000   0.000
  0.000   0.000   0.000   0.000   0.000   0.000   0.000   0.000   0.000   0.000   0.000   0.000   0.000   0.000   0.000   0.000
  0.000   0.000   0.000   0.000   0.000   0.000   0.000   0.000   0.000   0.000   0.000   0.000   0.000   0.000   0.000   0.000
  0.000   0.000   0.000   0.000   0.000   0.000   0.000   0.000   0.000   0.000   0.000   0.000   0.000   0.000   0.000   0.000
  0.000   0.000   0.000   0.000   0.000   0.000   0.000   0.000   0.000   0.000   0.000   0.000   0.000   0.000   0.000   0.000
  0.000   0.000   0.000   0.000   0.000   0.000   0.000   0.000   0.000   0.000   0.000   0.000   0.000   0.000   0.000   0.000
  0.000   0.000   0.000   0.000   0.000   0.000   0.000   0.000   0.000   0.000   0.000   0.000   0.000   0.000   0.000   0.000
  0.000   0.000   0.000   0.000   0.000   0.000   0.000   0.000   0.000   0.000   0.000   0.000   0.000   0.000   0.000   0.000
  0.000   0.000   0.000   0.000   0.000   0.000   0.000   0.000   0.000   0.000   0.000   0.000   0.000   0.000   0.000   0.000
  0.000   0.000   0.000   0.000   0.000   0.000   0.000   0.000   0.000   0.000   0.000   0.000   0.000   0.000   0.000   0.000
  0.000   0.000   0.000   0.000   0.000   0.000   0.000   0.000   0.000   0.000   0.000   0.000   0.000   0.000   0.000   0.000
  0.000   0.000   0.000   0.000   0.000   0.000   0.000   0.000   0.000   0.000   0.000   0.000   0.000   0.000   0.000   0.000
  0.000   0.000   0.000   0.000   0.000   0.000   0.000   0.000   0.000   0.000   0.000   0.000   0.000   0.000   0.000   0.000
  0.000   0.000   0.000   0.000   0.000   0.000   0.000   0.000   0.000   0.000   0.000   0.000   0.000   0.000   0.000   0.000
  0.000   0.000   0.000   0.000   0.000   0.000   0.000   0.000   0.000   0.000   0.000   0.000   0.000   0.000   0.000   0.000
  0.000   0.000   0.000   0.000   0.000   0.000   0.000   0.000   0.000   0.000   0.000   0.000   0.000   0.000   0.000   0.000
  0.000   0.000   0.000   0.000   0.000   0.000   0.000   0.000   0.000   0.000   0.000   0.000   0.000   0.000   0.000   0.000


------------------------ aborting loop because EDIFF is reached ----------------------------------------


    CHARGE:  cpu time    0.2207: real time    0.2223
    FORLOC:  cpu time    0.0037: real time    0.0037
    FORNL :  cpu time    0.1636: real time    0.1647
    STRESS:  cpu time    1.1303: real time    1.1398
    FORCOR:  cpu time    0.0455: real time    0.0457
    FORHAR:  cpu time    0.0123: real time    0.0124
    OFIELD:  cpu time    0.0004: real time    0.0004

  FORCE on cell =-STRESS in cart. coord.  units (eV):
  Direction    XX          YY          ZZ          XY          YZ          ZX
  --------------------------------------------------------------------------------------
  Alpha Z   167.28214   167.28214   167.28214
  Ewald   -1091.24516 -1091.24515 -1168.58029     0.00000     0.00000     0.00000
  Hartree   901.86363   901.86363   662.44468    -0.00000     0.00000     0.00000
  E(xc)    -218.98461  -218.98461  -218.50843     0.00000     0.00000     0.00000
  Local    -349.54592  -349.54592   -43.53312    -0.00000    -0.00000     0.00000
  n-local  -129.95188  -130.85696  -133.56190     0.78222    -0.89777    -1.55697
  augment   210.47543   210.47542   207.86564    -0.00000     0.00000     0.00000
  Kinetic   605.48206   623.24678   615.86035   -15.38464     0.62611     1.08433
  Fock        0.00000     0.00000     0.00000     0.00000     0.00000     0.00000
  -------------------------------------------------------------------------------------
  Total     103.80552   103.80552    89.26907     0.00000     0.00000    -0.00000
  in kB    4230.13986  4230.13984  3637.77056     0.00000     0.00000    -0.00000
  external pressure =     4032.68 kB  Pullay stress =        0.00 kB


 VOLUME and BASIS-vectors are now :
 -----------------------------------------------------------------------------
  energy-cutoff  :      550.00
  volume of cell :       39.32
      direct lattice vectors                 reciprocal lattice vectors
     1.420054545  0.819868875  5.628279077     0.352099151  0.203284540  0.059224734
    -1.420054545  0.819868875  5.628279077    -0.352099151  0.203284540  0.059224734
     0.000000000 -1.639737740  5.628279077    -0.000000000 -0.406569081  0.059224735

  length of vectors
     5.862274751  5.862274751  5.862274749     0.410860056  0.410860056  0.410860057


 FORCES acting on ions
    electron-ion (+dipol)            ewald-force                    non-local-force                 convergence-correction
 -----------------------------------------------------------------------------------------------
   0.389E-13 0.864E-13 -.135E-12   0.149E-13 -.146E-13 -.114E-12   -.623E-21 0.621E-20 -.452E-20   -.410E-11 -.828E-11 -.114E-10
   -.442E-12 -.538E-12 -.538E-12   -.323E-14 -.364E-14 0.284E-13   -.172E-23 0.221E-22 0.452E-23   0.282E-13 0.461E-13 0.379E-12
   0.133E-10 -.145E-06 -.350E+03   -.196E-14 0.446E-07 0.344E+03   -.528E-17 0.469E-08 0.792E+01   -.208E-11 0.341E-08 -.132E+01
   -.851E-11 0.145E-06 0.350E+03   0.173E-14 -.446E-07 -.344E+03   0.333E-16 -.469E-08 -.792E+01   0.946E-12 -.342E-08 0.132E+01
 -----------------------------------------------------------------------------------------------
   0.439E-11 0.131E-10 -.222E-11   0.114E-13 -.139E-13 0.000E+00   0.280E-16 0.254E-17 0.000E+00   -.521E-11 -.112E-10 -.792E-11
 
 
 POSITION                                       TOTAL-FORCE (eV/Angst)
 -----------------------------------------------------------------------------------
      0.00000      0.00000      0.00000         0.000000      0.000000      0.000000
      0.00000      0.00000      8.44242         0.000000      0.000000      0.000000
     -0.00000      0.00000      1.84997        -0.000000      0.000000      0.930531
      0.00000      0.00000     15.03487         0.000000     -0.000000     -0.930531
 -----------------------------------------------------------------------------------
    total drift:                               -0.000000      0.000000     -0.000000


--------------------------------------------------------------------------------------------------------



  FREE ENERGIE OF THE ION-ELECTRON SYSTEM (eV)
  ---------------------------------------------------
  free  energy   TOTEN  =       -27.12795311 eV

  energy  without entropy=      -27.12795311  energy(sigma->0) =      -27.12795311
 


--------------------------------------------------------------------------------------------------------


    POTLOK:  cpu time    0.0635: real time    0.0638


--------------------------------------------------------------------------------------------------------


     LOOP+:  cpu time  173.0676: real time  174.5611
    4ORBIT:  cpu time    0.0000: real time    0.0000

 total amount of memory used by VASP MPI-rank0   114640. kBytes
=======================================================================

   base      :      30000. kBytes
   nonl-proj :      68500. kBytes
   fftplans  :       2983. kBytes
   grid      :       9252. kBytes
   one-center:        322. kBytes
   wavefun   :       3583. kBytes
 
  
  
 General timing and accounting informations for this job:
 ========================================================
  
                  Total CPU time used (sec):      174.726
                            User time (sec):      173.520
                          System time (sec):        1.206
                         Elapsed time (sec):      176.565
  
                   Maximum memory used (kb):      187780.
                   Average memory used (kb):           0.
  
                          Minor page faults:       255187
                          Major page faults:            0
                 Voluntary context switches:          211
