<?xml version="1.0" encoding="ISO-8859-1"?>
<modeling>
 <generator>
  <i name="program" type="string">vasp </i>
  <i name="version" type="string">5.4.4.18Apr17-6-g9f103f2a35  </i>
  <i name="subversion" type="string">(build Dec 13 2019 19:06:22) complex            parallel </i>
  <i name="platform" type="string">LinuxIFC </i>
  <i name="date" type="string">2021 07 02 </i>
  <i name="time" type="string">15:55:40 </i>
 </generator>
 <incar>
  <i type="string" name="PREC">accurate</i>
  <i type="string" name="ALGO"> Fast</i>
  <i type="int" name="ISPIN">     1</i>
  <i type="int" name="ICHARG">    11</i>
  <i type="int" name="NELM">    60</i>
  <i type="int" name="IBRION">    -1</i>
  <i name="EDIFF">      0.00000010</i>
  <i name="ENCUT">    550.00000000</i>
  <i type="int" name="NBANDS">    36</i>
  <i type="logical" name="LREAL"> F  </i>
  <i type="int" name="ISMEAR">     0</i>
  <i type="logical" name="LWAVE"> F  </i>
  <i type="logical" name="LCHARG"> F  </i>
  <v type="int" name="KPOINT_BSE">    -1     0     0     0</v>
  <i type="int" name="NELM">    60</i>
  <i type="string" name="GGA"> PS</i>
 </incar>
 <structure name="primitive_cell" >
  <crystal>
   <varray name="basis" >
    <v>       1.42005454       0.81986888       5.62827908 </v>
    <v>      -1.42005454       0.81986888       5.62827908 </v>
    <v>       0.00000000      -1.63973774       5.62827908 </v>
   </varray>
   <i name="volume">     39.31663112 </i>
   <varray name="rec_basis" >
    <v>       0.35209915       0.20328454       0.05922473 </v>
    <v>      -0.35209915       0.20328454       0.05922473 </v>
    <v>      -0.00000000      -0.40656908       0.05922473 </v>
   </varray>
  </crystal>
  <varray name="positions" >
   <v>       0.00000000       0.00000000       0.00000000 </v>
   <v>       0.10956395       0.10956395       0.10956395 </v>
   <v>      -0.10956395      -0.10956395      -0.10956395 </v>
   <v>      -0.50000000      -0.50000000      -0.50000000 </v>
  </varray>
 </structure>
 <varray name="primitive_index" >
  <v type="int" >        1 </v>
  <v type="int" >        3 </v>
  <v type="int" >        4 </v>
  <v type="int" >        2 </v>
 </varray>
 <kpoints>
  <varray name="kpointlist" >
   <v>       0.50000000       0.00000000       0.00000000 </v>
   <v>       0.49572905       0.00427095       0.00000000 </v>
   <v>       0.49786453       0.00213547       0.00000000 </v>
   <v>       0.50213547      -0.00213547       0.00000000 </v>
   <v>       0.50427095      -0.00427095       0.00000000 </v>
   <v>       0.49753417      -0.00246583       0.00493166 </v>
   <v>       0.49876708      -0.00123292       0.00246583 </v>
   <v>       0.50123292       0.00123292      -0.00246583 </v>
   <v>       0.50246583       0.00246583      -0.00493166 </v>
   <v>       0.48307243      -0.01692757      -0.01692757 </v>
   <v>       0.49153621      -0.00846379      -0.00846379 </v>
   <v>       0.50846379       0.00846379       0.00846379 </v>
   <v>       0.51692757       0.01692757       0.01692757 </v>
   <v>       0.49326322       0.00180511       0.00493166 </v>
   <v>       0.49539870      -0.00033036       0.00493166 </v>
   <v>       0.49966964      -0.00460130       0.00493166 </v>
   <v>       0.50180511      -0.00673678       0.00493166 </v>
   <v>       0.49449614       0.00303803       0.00246583 </v>
   <v>       0.49663161       0.00090256       0.00246583 </v>
   <v>       0.50090256      -0.00336839       0.00246583 </v>
   <v>       0.50303803      -0.00550386       0.00246583 </v>
   <v>       0.49696197       0.00550386      -0.00246583 </v>
   <v>       0.49909744       0.00336839      -0.00246583 </v>
   <v>       0.50336839      -0.00090256      -0.00246583 </v>
   <v>       0.50550386      -0.00303803      -0.00246583 </v>
   <v>       0.49819489       0.00673678      -0.00493166 </v>
   <v>       0.50033036       0.00460130      -0.00493166 </v>
   <v>       0.50460130       0.00033036      -0.00493166 </v>
   <v>       0.50673678      -0.00180511      -0.00493166 </v>
   <v>       0.47880148      -0.01265662      -0.01692757 </v>
   <v>       0.48093696      -0.01479210      -0.01692757 </v>
   <v>       0.48520790      -0.01906304      -0.01692757 </v>
   <v>       0.48734338      -0.02119852      -0.01692757 </v>
   <v>       0.48726527      -0.00419284      -0.00846379 </v>
   <v>       0.48940074      -0.00632831      -0.00846379 </v>
   <v>       0.49367169      -0.01059926      -0.00846379 </v>
   <v>       0.49580716      -0.01273473      -0.00846379 </v>
   <v>       0.50419284       0.01273473       0.00846379 </v>
   <v>       0.50632831       0.01059926       0.00846379 </v>
   <v>       0.51059926       0.00632831       0.00846379 </v>
   <v>       0.51273473       0.00419284       0.00846379 </v>
   <v>       0.51265662       0.02119852       0.01692757 </v>
   <v>       0.51479210       0.01906304       0.01692757 </v>
   <v>       0.51906304       0.01479210       0.01692757 </v>
   <v>       0.52119852       0.01265662       0.01692757 </v>
   <v>       0.48060660      -0.01939340      -0.01199591 </v>
   <v>       0.48183951      -0.01816049      -0.01446174 </v>
   <v>       0.48430535      -0.01569465      -0.01939340 </v>
   <v>       0.48553826      -0.01446174      -0.02185923 </v>
   <v>       0.48907038      -0.01092962      -0.00353212 </v>
   <v>       0.49030330      -0.00969670      -0.00599795 </v>
   <v>       0.49276913      -0.00723087      -0.01092962 </v>
   <v>       0.49400205      -0.00599795      -0.01339545 </v>
   <v>       0.50599795       0.00599795       0.01339545 </v>
   <v>       0.50723087       0.00723087       0.01092962 </v>
   <v>       0.50969670       0.00969670       0.00599795 </v>
   <v>       0.51092962       0.01092962       0.00353212 </v>
   <v>       0.51446174       0.01446174       0.02185923 </v>
   <v>       0.51569465       0.01569465       0.01939340 </v>
   <v>       0.51816049       0.01816049       0.01446174 </v>
   <v>       0.51939340       0.01939340       0.01199591 </v>
  </varray>
  <varray name="weights" >
   <v>       0.01639344 </v>
   <v>       0.01639344 </v>
   <v>       0.01639344 </v>
   <v>       0.01639344 </v>
   <v>       0.01639344 </v>
   <v>       0.01639344 </v>
   <v>       0.01639344 </v>
   <v>       0.01639344 </v>
   <v>       0.01639344 </v>
   <v>       0.01639344 </v>
   <v>       0.01639344 </v>
   <v>       0.01639344 </v>
   <v>       0.01639344 </v>
   <v>       0.01639344 </v>
   <v>       0.01639344 </v>
   <v>       0.01639344 </v>
   <v>       0.01639344 </v>
   <v>       0.01639344 </v>
   <v>       0.01639344 </v>
   <v>       0.01639344 </v>
   <v>       0.01639344 </v>
   <v>       0.01639344 </v>
   <v>       0.01639344 </v>
   <v>       0.01639344 </v>
   <v>       0.01639344 </v>
   <v>       0.01639344 </v>
   <v>       0.01639344 </v>
   <v>       0.01639344 </v>
   <v>       0.01639344 </v>
   <v>       0.01639344 </v>
   <v>       0.01639344 </v>
   <v>       0.01639344 </v>
   <v>       0.01639344 </v>
   <v>       0.01639344 </v>
   <v>       0.01639344 </v>
   <v>       0.01639344 </v>
   <v>       0.01639344 </v>
   <v>       0.01639344 </v>
   <v>       0.01639344 </v>
   <v>       0.01639344 </v>
   <v>       0.01639344 </v>
   <v>       0.01639344 </v>
   <v>       0.01639344 </v>
   <v>       0.01639344 </v>
   <v>       0.01639344 </v>
   <v>       0.01639344 </v>
   <v>       0.01639344 </v>
   <v>       0.01639344 </v>
   <v>       0.01639344 </v>
   <v>       0.01639344 </v>
   <v>       0.01639344 </v>
   <v>       0.01639344 </v>
   <v>       0.01639344 </v>
   <v>       0.01639344 </v>
   <v>       0.01639344 </v>
   <v>       0.01639344 </v>
   <v>       0.01639344 </v>
   <v>       0.01639344 </v>
   <v>       0.01639344 </v>
   <v>       0.01639344 </v>
   <v>       0.01639344 </v>
  </varray>
 </kpoints>
 <parameters>
  <separator name="general" >
   <i type="string" name="SYSTEM">unknown system</i>
   <i type="logical" name="LCOMPAT"> F  </i>
  </separator>
  <separator name="electronic" >
   <i type="string" name="PREC">accura</i>
   <i name="ENMAX">    550.00000000</i>
   <i name="ENAUG">    982.89200000</i>
   <i name="EDIFF">      0.00000010</i>
   <i type="int" name="IALGO">    68</i>
   <i type="int" name="IWAVPR">    10</i>
   <i type="int" name="NBANDS">    36</i>
   <i name="NELECT">     34.00000000</i>
   <i type="int" name="TURBO">     0</i>
   <i type="int" name="IRESTART">     0</i>
   <i type="int" name="NREBOOT">     0</i>
   <i type="int" name="NMIN">     0</i>
   <i name="EREF">      0.00000000</i>
   <separator name="electronic smearing" >
    <i type="int" name="ISMEAR">     0</i>
    <i name="SIGMA">      0.20000000</i>
    <i name="KSPACING">      0.50000000</i>
    <i type="logical" name="KGAMMA"> T  </i>
   </separator>
   <separator name="electronic projectors" >
    <i type="logical" name="LREAL"> F  </i>
    <v name="ROPT">      0.00000000      0.00000000      0.00000000</v>
    <i type="int" name="LMAXPAW">  -100</i>
    <i type="int" name="LMAXMIX">     2</i>
    <i type="logical" name="NLSPLINE"> F  </i>
   </separator>
   <separator name="electronic startup" >
    <i type="int" name="ISTART">     0</i>
    <i type="int" name="ICHARG">    11</i>
    <i type="int" name="INIWAV">     1</i>
   </separator>
   <separator name="electronic spin" >
    <i type="int" name="ISPIN">     1</i>
    <i type="logical" name="LNONCOLLINEAR"> F  </i>
    <v name="MAGMOM">      1.00000000      1.00000000      1.00000000      1.00000000</v>
    <i name="NUPDOWN">     -1.00000000</i>
    <i type="logical" name="LSORBIT"> F  </i>
    <v name="SAXIS">      0.00000000      0.00000000      1.00000000</v>
    <i type="logical" name="LSPIRAL"> F  </i>
    <v name="QSPIRAL">      0.00000000      0.00000000      0.00000000</v>
    <i type="logical" name="LZEROZ"> F  </i>
   </separator>
   <separator name="electronic exchange-correlation" >
    <i type="logical" name="LASPH"> F  </i>
    <i type="logical" name="LMETAGGA"> F  </i>
   </separator>
   <separator name="electronic convergence" >
    <i type="int" name="NELM">    60</i>
    <i type="int" name="NELMDL">    -5</i>
    <i type="int" name="NELMIN">     2</i>
    <i name="ENINI">    550.00000000</i>
    <separator name="electronic convergence detail" >
     <i type="logical" name="LDIAG"> T  </i>
     <i type="logical" name="LSUBROT"> F  </i>
     <i name="WEIMIN">      0.00000000</i>
     <i name="EBREAK">      0.00000000</i>
     <i name="DEPER">      0.30000000</i>
     <i type="int" name="NRMM">     4</i>
     <i name="TIME">      0.40000000</i>
    </separator>
   </separator>
   <separator name="electronic mixer" >
    <i name="AMIX">      0.40000000</i>
    <i name="BMIX">      1.00000000</i>
    <i name="AMIN">      0.10000000</i>
    <i name="AMIX_MAG">      1.60000000</i>
    <i name="BMIX_MAG">      1.00000000</i>
    <separator name="electronic mixer details" >
     <i type="int" name="IMIX">     4</i>
     <i type="logical" name="MIXFIRST"> F  </i>
     <i type="int" name="MAXMIX">   -45</i>
     <i name="WC">    100.00000000</i>
     <i type="int" name="INIMIX">     1</i>
     <i type="int" name="MIXPRE">     1</i>
     <i type="int" name="MREMOVE">     5</i>
    </separator>
   </separator>
   <separator name="electronic dipolcorrection" >
    <i type="logical" name="LDIPOL"> F  </i>
    <i type="logical" name="LMONO"> F  </i>
    <i type="int" name="IDIPOL">     0</i>
    <i name="EPSILON">      1.00000000</i>
    <v name="DIPOL">   -100.00000000   -100.00000000   -100.00000000</v>
    <i name="EFIELD">      0.00000000</i>
   </separator>
  </separator>
  <separator name="grids" >
   <i type="int" name="NGX">    48</i>
   <i type="int" name="NGY">    48</i>
   <i type="int" name="NGZ">    48</i>
   <i type="int" name="NGXF">    96</i>
   <i type="int" name="NGYF">    96</i>
   <i type="int" name="NGZF">    96</i>
   <i type="logical" name="ADDGRID"> F  </i>
  </separator>
  <separator name="ionic" >
   <i type="int" name="NSW">     0</i>
   <i type="int" name="IBRION">    -1</i>
   <i type="int" name="MDALGO">     0</i>
   <i type="int" name="ISIF">     2</i>
   <i name="PSTRESS">      0.00000000</i>
   <i name="EDIFFG">      0.00000100</i>
   <i type="int" name="NFREE">     0</i>
   <i name="POTIM">      0.50000000</i>
   <i name="SMASS">     -3.00000000</i>
   <i name="SCALEE">      1.00000000</i>
  </separator>
  <separator name="ionic md" >
   <i name="TEBEG">      0.00010000</i>
   <i name="TEEND">      0.00010000</i>
   <i type="int" name="NBLOCK">     1</i>
   <i type="int" name="KBLOCK">     1</i>
   <i type="int" name="NPACO">   256</i>
   <i name="APACO">     16.00000000</i>
  </separator>
  <separator name="symmetry" >
   <i type="int" name="ISYM">     2</i>
   <i name="SYMPREC">      0.00001000</i>
  </separator>
  <separator name="dos" >
   <i type="int" name="LORBIT">     0</i>
   <v name="RWIGS">     -1.00000000     -1.00000000     -1.00000000</v>
   <i type="int" name="NEDOS">   301</i>
   <i name="EMIN">     10.00000000</i>
   <i name="EMAX">    -10.00000000</i>
   <i name="EFERMI">      0.00000000</i>
  </separator>
  <separator name="writing" >
   <i type="int" name="NWRITE">     2</i>
   <i type="logical" name="LWAVE"> F  </i>
   <i type="logical" name="LDOWNSAMPLE"> F  </i>
   <i type="logical" name="LCHARG"> F  </i>
   <i type="logical" name="LPARD"> F  </i>
   <i type="logical" name="LVTOT"> F  </i>
   <i type="logical" name="LVHAR"> F  </i>
   <i type="logical" name="LELF"> F  </i>
   <i type="logical" name="LOPTICS"> F  </i>
   <v name="STM">      0.00000000      0.00000000      0.00000000      0.00000000      0.00000000      0.00000000      0.00000000</v>
  </separator>
  <separator name="performance" >
   <i type="int" name="NPAR">    12</i>
   <i type="int" name="NSIM">     4</i>
   <i type="int" name="NBLK">    -1</i>
   <i type="logical" name="LPLANE"> T  </i>
   <i type="logical" name="LSCALAPACK"> T  </i>
   <i type="logical" name="LSCAAWARE"> F  </i>
   <i type="logical" name="LSCALU"> F  </i>
   <i type="logical" name="LASYNC"> F  </i>
   <i type="logical" name="LORBITALREAL"> F  </i>
  </separator>
  <separator name="miscellaneous" >
   <i type="int" name="IDIOT">     3</i>
   <i type="int" name="ISPECIAL">     0</i>
   <i type="logical" name="LMUSIC"> F  </i>
   <v name="POMASS">     63.54600000     26.98200000     16.00000000</v>
   <v name="DARWINR">      0.00000000      0.00000000      0.00000000</v>
   <v name="DARWINV">      1.00000000      1.00000000      1.00000000</v>
   <i type="logical" name="LCORR"> T  </i>
  </separator>
  <i type="logical" name="GGA_COMPAT"> T  </i>
  <i type="logical" name="LBERRY"> F  </i>
  <i type="int" name="ICORELEVEL">     0</i>
  <i type="logical" name="LDAU"> F  </i>
  <i type="int" name="I_CONSTRAINED_M">     0</i>
  <separator name="electronic exchange-correlation" >
   <i type="string" name="GGA">PS</i>
   <i type="int" name="VOSKOWN">     0</i>
   <i type="logical" name="LHFCALC"> F  </i>
   <i type="string" name="PRECFOCK"></i>
   <i type="logical" name="LSYMGRAD"> F  </i>
   <i type="logical" name="LHFONE"> F  </i>
   <i type="logical" name="LRHFCALC"> F  </i>
   <i type="logical" name="LTHOMAS"> F  </i>
   <i type="logical" name="LMODELHF"> F  </i>
   <i name="ENCUT4O">     -1.00000000</i>
   <i type="int" name="EXXOEP">     0</i>
   <i type="int" name="FOURORBIT">     0</i>
   <i name="AEXX">      0.00000000</i>
   <i name="HFALPHA">      0.00000000</i>
   <i name="MCALPHA">      0.00000000</i>
   <i name="ALDAX">      1.00000000</i>
   <i name="AGGAX">      1.00000000</i>
   <i name="ALDAC">      1.00000000</i>
   <i name="AGGAC">      1.00000000</i>
   <i type="int" name="NKREDX">     1</i>
   <i type="int" name="NKREDY">     1</i>
   <i type="int" name="NKREDZ">     1</i>
   <i type="logical" name="SHIFTRED"> F  </i>
   <i type="logical" name="ODDONLY"> F  </i>
   <i type="logical" name="EVENONLY"> F  </i>
   <i type="int" name="LMAXFOCK">     0</i>
   <i type="int" name="NMAXFOCKAE">     0</i>
   <i type="logical" name="LFOCKAEDFT"> F  </i>
   <i name="HFSCREEN">      0.00000000</i>
   <i name="HFSCREENC">      0.00000000</i>
   <i type="int" name="NBANDSGWLOW">     0</i>
  </separator>
  <separator name="vdW DFT" >
   <i type="logical" name="LUSE_VDW"> F  </i>
   <i name="Zab_VDW">     -0.84910000</i>
   <i name="PARAM1">      0.12340000</i>
   <i name="PARAM2">      1.00000000</i>
   <i name="PARAM3">      0.00000000</i>
  </separator>
  <separator name="model GW" >
   <i type="int" name="MODEL_GW">     0</i>
   <i name="MODEL_EPS0">      5.89749467</i>
   <i name="MODEL_ALPHA">      1.00000000</i>
  </separator>
  <separator name="linear response parameters" >
   <i type="logical" name="LEPSILON"> F  </i>
   <i type="logical" name="LRPA"> F  </i>
   <i type="logical" name="LNABLA"> F  </i>
   <i type="logical" name="LVEL"> F  </i>
   <i type="int" name="KINTER">     0</i>
   <i name="CSHIFT">      0.10000000</i>
   <i name="OMEGAMAX">     -1.00000000</i>
   <i name="DEG_THRESHOLD">      0.00200000</i>
   <i name="RTIME">     -0.10000000</i>
   <i name="WPLASMAI">      0.00000000</i>
   <v name="DFIELD">      0.00000000      0.00000000      0.00000000</v>
   <v name="WPLASMA">      0.00000000      0.00000000      0.00000000      0.00000000      0.00000000      0.00000000      0.00000000      0.00000000      0.00000000</v>
  </separator>
  <separator name="orbital magnetization" >
   <i type="logical" name="NUCIND"> F  </i>
   <v name="MAGPOS">      0.00000000      0.00000000      0.00000000</v>
   <i type="logical" name="LNICSALL"> T  </i>
   <i type="logical" name="ORBITALMAG"> F  </i>
   <i type="logical" name="LMAGBLOCH"> F  </i>
   <i type="logical" name="LCHIMAG"> F  </i>
   <i type="logical" name="LGAUGE"> T  </i>
   <i type="int" name="MAGATOM">     0</i>
   <v name="MAGDIPOL">      0.00000000      0.00000000      0.00000000</v>
   <v name="AVECCONST">      0.00000000      0.00000000      0.00000000</v>
  </separator>
  <separator name="response functions" >
   <i type="logical" name="LADDER"> F  </i>
   <i type="logical" name="LRPAFORCE"> F  </i>
   <i type="logical" name="LFXC"> F  </i>
   <i type="logical" name="LHARTREE"> T  </i>
   <i type="int" name="IBSE">     0</i>
   <v type="int" name="KPOINT">    -1     0     0     0</v>
   <i type="logical" name="LTCTE"> F  </i>
   <i type="logical" name="LTETE"> F  </i>
   <i type="logical" name="LTRIPLET"> F  </i>
   <i type="logical" name="LFXCEPS"> F  </i>
   <i type="logical" name="LFXHEG"> F  </i>
   <i type="int" name="NATURALO">     2</i>
   <i type="logical" name="L2ORDER"> F  </i>
   <i type="logical" name="LMP2LT"> F  </i>
   <i type="logical" name="LUSEW"> F  </i>
   <i name="ENCUTGW">     -2.00000000</i>
   <i name="ENCUTGWSOFT">     -2.00000000</i>
   <i name="ENCUTLF">     -1.00000000</i>
   <i type="int" name="LMAXMP2">    -1</i>
   <i name="SCISSOR">      0.00000000</i>
   <i type="int" name="NOMEGA">     0</i>
   <i type="int" name="NOMEGAR">     0</i>
   <i type="int" name="NBANDSGW">    -1</i>
   <i type="int" name="NBANDSO">    -1</i>
   <i type="int" name="NBANDSV">    -1</i>
   <i type="int" name="NELM">    60</i>
   <i type="int" name="NELMHF">     1</i>
   <i type="int" name="DIM">     3</i>
   <i type="int" name="ANTIRES">     0</i>
   <i name="OMEGAMAX">    -30.00000000</i>
   <i name="OMEGAMIN">    -30.00000000</i>
   <i name="OMEGATL">   -200.00000000</i>
   <i type="int" name="OMEGAGRID">   140</i>
   <i name="CSHIFT">     -0.10000000</i>
   <i type="logical" name="SELFENERGY"> F  </i>
   <i type="logical" name="LSPECTRAL"> F  </i>
   <i type="logical" name="LSPECTRALGW"> F  </i>
   <i type="logical" name="LSINGLES"> F  </i>
   <i type="logical" name="LFERMIGW"> F  </i>
   <i type="logical" name="ODDONLYGW"> F  </i>
   <i type="logical" name="EVENONLYGW"> F  </i>
   <i type="int" name="NKREDLFX">     1</i>
   <i type="int" name="NKREDLFY">     1</i>
   <i type="int" name="NKREDLFZ">     1</i>
   <i type="int" name="MAXMEM">  2800</i>
   <i type="int" name="TELESCOPE">     0</i>
   <i type="int" name="TAUPAR">     1</i>
   <i type="int" name="OMEGAPAR">    -1</i>
   <i name="LAMBDA">      1.00000000</i>
  </separator>
  <separator name="External order field" >
   <i name="OFIELD_KAPPA">      0.00000000</i>
   <v name="OFIELD_K">      0.00000000      0.00000000      0.00000000</v>
   <i name="OFIELD_Q6_NEAR">      0.00000000</i>
   <i name="OFIELD_Q6_FAR">      0.00000000</i>
   <i name="OFIELD_A">      0.00000000</i>
  </separator>
 </parameters>
 <atominfo>
  <atoms>       4 </atoms>
  <types>       3 </types>
  <array name="atoms" >
   <dimension dim="1">ion</dimension>
   <field type="string">element</field>
   <field type="int">atomtype</field>
   <set>
    <rc><c>Cu</c><c>   1</c></rc>
    <rc><c>Al</c><c>   2</c></rc>
    <rc><c>O </c><c>   3</c></rc>
    <rc><c>O </c><c>   3</c></rc>
   </set>
  </array>
  <array name="atomtypes" >
   <dimension dim="1">type</dimension>
   <field type="int">atomspertype</field>
   <field type="string">element</field>
   <field>mass</field>
   <field>valence</field>
   <field type="string">pseudopotential</field>
   <set>
    <rc><c>   1</c><c>Cu</c><c>     63.54600000</c><c>     19.00000000</c><c>  PAW_PBE Cu_sv_GW 05Dec2013            </c></rc>
    <rc><c>   1</c><c>Al</c><c>     26.98200000</c><c>      3.00000000</c><c>  PAW_PBE Al_GW 19Mar2012               </c></rc>
    <rc><c>   2</c><c>O </c><c>     16.00000000</c><c>      6.00000000</c><c>  PAW_PBE O_GW 28Sep2005                </c></rc>
   </set>
  </array>
 </atominfo>
 <structure name="initialpos" >
  <crystal>
   <varray name="basis" >
    <v>       1.42005454       0.81986888       5.62827908 </v>
    <v>      -1.42005454       0.81986888       5.62827908 </v>
    <v>       0.00000000      -1.63973774       5.62827908 </v>
   </varray>
   <i name="volume">     39.31663112 </i>
   <varray name="rec_basis" >
    <v>       0.35209915       0.20328454       0.05922473 </v>
    <v>      -0.35209915       0.20328454       0.05922473 </v>
    <v>      -0.00000000      -0.40656908       0.05922473 </v>
   </varray>
  </crystal>
  <varray name="positions" >
   <v>       0.00000000       0.00000000       0.00000000 </v>
   <v>       0.50000000       0.50000000       0.50000000 </v>
   <v>       0.10956395       0.10956395       0.10956395 </v>
   <v>       0.89043605       0.89043605       0.89043605 </v>
  </varray>
 </structure>
 <calculation>
  <scstep>
   <time name="dav">    6.26    6.31</time>
   <time name="total">    6.35    6.40</time>
   <energy>
    <i name="alphaZ">    167.28213848 </i>
    <i name="ewald">  -3351.06778565 </i>
    <i name="hartreedc">  -2400.81965511 </i>
    <i name="XCdc">    180.92806670 </i>
    <i name="pawpsdc">   5402.02430262 </i>
    <i name="pawaedc">  -5725.83564433 </i>
    <i name="eentropy">     -0.02472669 </i>
    <i name="bandstr">   -250.11363413 </i>
    <i name="atom">   6293.50105541 </i>
    <i name="e_fr_energy">    315.87411731 </i>
    <i name="e_wo_entrp">    315.89884400 </i>
    <i name="e_0_energy">    315.88648065 </i>
   </energy>
  </scstep>
  <scstep>
   <time name="dav">    6.65    6.70</time>
   <time name="total">    6.65    6.71</time>
   <energy>
    <i name="e_fr_energy">     -9.09188907 </i>
    <i name="e_wo_entrp">     -9.09188907 </i>
    <i name="e_0_energy">     -9.09188907 </i>
   </energy>
  </scstep>
  <scstep>
   <time name="dav">    6.46    6.52</time>
   <time name="total">    6.46    6.52</time>
   <energy>
    <i name="e_fr_energy">    -26.59628609 </i>
    <i name="e_wo_entrp">    -26.59628609 </i>
    <i name="e_0_energy">    -26.59628609 </i>
   </energy>
  </scstep>
  <scstep>
   <time name="dav">    7.02    7.08</time>
   <time name="total">    7.02    7.08</time>
   <energy>
    <i name="e_fr_energy">    -27.10153833 </i>
    <i name="e_wo_entrp">    -27.10153833 </i>
    <i name="e_0_energy">    -27.10153833 </i>
   </energy>
  </scstep>
  <scstep>
   <time name="dav">    5.77    5.82</time>
   <time name="total">    5.77    5.82</time>
   <energy>
    <i name="e_fr_energy">    -27.12659943 </i>
    <i name="e_wo_entrp">    -27.12659943 </i>
    <i name="e_0_energy">    -27.12659943 </i>
   </energy>
  </scstep>
  <scstep>
   <time name="diag">    1.19    1.20</time>
   <time name="diis">   10.15   10.26</time>
   <time name="orth">    0.03    0.03</time>
   <time name="total">   11.37   11.49</time>
   <energy>
    <i name="e_fr_energy">    -27.12715093 </i>
    <i name="e_wo_entrp">    -27.12715093 </i>
    <i name="e_0_energy">    -27.12715093 </i>
   </energy>
  </scstep>
  <scstep>
   <time name="diag">    1.08    1.09</time>
   <time name="diis">    8.66    8.74</time>
   <time name="orth">    0.03    0.03</time>
   <time name="total">    9.77    9.86</time>
   <energy>
    <i name="e_fr_energy">    -27.12766888 </i>
    <i name="e_wo_entrp">    -27.12766888 </i>
    <i name="e_0_energy">    -27.12766888 </i>
   </energy>
  </scstep>
  <scstep>
   <time name="diag">    1.37    1.38</time>
   <time name="diis">    8.19    8.25</time>
   <time name="orth">    0.04    0.04</time>
   <time name="total">    9.60    9.67</time>
   <energy>
    <i name="e_fr_energy">    -27.12782403 </i>
    <i name="e_wo_entrp">    -27.12782403 </i>
    <i name="e_0_energy">    -27.12782403 </i>
   </energy>
  </scstep>
  <scstep>
   <time name="diag">    1.50    1.52</time>
   <time name="diis">    8.78    8.85</time>
   <time name="orth">    0.04    0.04</time>
   <time name="total">   10.33   10.41</time>
   <energy>
    <i name="e_fr_energy">    -27.12788711 </i>
    <i name="e_wo_entrp">    -27.12788711 </i>
    <i name="e_0_energy">    -27.12788711 </i>
   </energy>
  </scstep>
  <scstep>
   <time name="diag">    1.45    1.47</time>
   <time name="diis">    8.10    8.16</time>
   <time name="orth">    0.04    0.04</time>
   <time name="total">    9.59    9.67</time>
   <energy>
    <i name="e_fr_energy">    -27.12791425 </i>
    <i name="e_wo_entrp">    -27.12791425 </i>
    <i name="e_0_energy">    -27.12791425 </i>
   </energy>
  </scstep>
  <scstep>
   <time name="diag">    1.47    1.48</time>
   <time name="diis">    8.31    8.37</time>
   <time name="orth">    0.04    0.04</time>
   <time name="total">    9.82    9.89</time>
   <energy>
    <i name="e_fr_energy">    -27.12792993 </i>
    <i name="e_wo_entrp">    -27.12792993 </i>
    <i name="e_0_energy">    -27.12792993 </i>
   </energy>
  </scstep>
  <scstep>
   <time name="diag">    1.53    1.55</time>
   <time name="diis">    7.71    7.77</time>
   <time name="orth">    0.04    0.04</time>
   <time name="total">    9.28    9.35</time>
   <energy>
    <i name="e_fr_energy">    -27.12794090 </i>
    <i name="e_wo_entrp">    -27.12794090 </i>
    <i name="e_0_energy">    -27.12794090 </i>
   </energy>
  </scstep>
  <scstep>
   <time name="diag">    1.47    1.49</time>
   <time name="diis">    7.42    7.48</time>
   <time name="orth">    0.04    0.04</time>
   <time name="total">    8.93    9.02</time>
   <energy>
    <i name="e_fr_energy">    -27.12794605 </i>
    <i name="e_wo_entrp">    -27.12794605 </i>
    <i name="e_0_energy">    -27.12794605 </i>
   </energy>
  </scstep>
  <scstep>
   <time name="diag">    1.51    1.52</time>
   <time name="diis">    6.74    6.80</time>
   <time name="orth">    0.04    0.04</time>
   <time name="total">    8.29    8.37</time>
   <energy>
    <i name="e_fr_energy">    -27.12794911 </i>
    <i name="e_wo_entrp">    -27.12794911 </i>
    <i name="e_0_energy">    -27.12794911 </i>
   </energy>
  </scstep>
  <scstep>
   <time name="diag">    1.51    1.53</time>
   <time name="diis">    6.42    6.47</time>
   <time name="orth">    0.04    0.04</time>
   <time name="total">    7.98    8.03</time>
   <energy>
    <i name="e_fr_energy">    -27.12795079 </i>
    <i name="e_wo_entrp">    -27.12795079 </i>
    <i name="e_0_energy">    -27.12795079 </i>
   </energy>
  </scstep>
  <scstep>
   <time name="diag">    1.56    1.58</time>
   <time name="diis">    5.97    6.01</time>
   <time name="orth">    0.03    0.03</time>
   <time name="total">    7.56    7.62</time>
   <energy>
    <i name="e_fr_energy">    -27.12795169 </i>
    <i name="e_wo_entrp">    -27.12795169 </i>
    <i name="e_0_energy">    -27.12795169 </i>
   </energy>
  </scstep>
  <scstep>
   <time name="diag">    1.32    1.33</time>
   <time name="diis">    6.67    6.74</time>
   <time name="orth">    0.03    0.03</time>
   <time name="total">    8.02    8.10</time>
   <energy>
    <i name="e_fr_energy">    -27.12795237 </i>
    <i name="e_wo_entrp">    -27.12795237 </i>
    <i name="e_0_energy">    -27.12795237 </i>
   </energy>
  </scstep>
  <scstep>
   <time name="diag">    1.28    1.29</time>
   <time name="diis">    5.63    5.68</time>
   <time name="orth">    0.03    0.03</time>
   <time name="total">    6.94    7.01</time>
   <energy>
    <i name="e_fr_energy">    -27.12795273 </i>
    <i name="e_wo_entrp">    -27.12795273 </i>
    <i name="e_0_energy">    -27.12795273 </i>
   </energy>
  </scstep>
  <scstep>
   <time name="diag">    1.53    1.54</time>
   <time name="diis">    5.26    5.30</time>
   <time name="orth">    0.04    0.04</time>
   <time name="total">    6.83    6.88</time>
   <energy>
    <i name="e_fr_energy">    -27.12795290 </i>
    <i name="e_wo_entrp">    -27.12795290 </i>
    <i name="e_0_energy">    -27.12795290 </i>
   </energy>
  </scstep>
  <scstep>
   <time name="diag">    1.52    1.53</time>
   <time name="diis">    6.38    6.43</time>
   <time name="orth">    0.03    0.03</time>
   <time name="total">    7.92    7.99</time>
   <energy>
    <i name="e_fr_energy">    -27.12795304 </i>
    <i name="e_wo_entrp">    -27.12795304 </i>
    <i name="e_0_energy">    -27.12795304 </i>
   </energy>
  </scstep>
  <scstep>
   <time name="diag">    0.87    0.88</time>
   <time name="diis">    6.02    6.06</time>
   <time name="orth">    0.04    0.04</time>
   <time name="total">    6.93    6.98</time>
   <energy>
    <i name="alphaZ">    167.28213848 </i>
    <i name="ewald">  -3351.06778565 </i>
    <i name="hartreedc">  -2400.81965511 </i>
    <i name="XCdc">    180.92806670 </i>
    <i name="pawpsdc">   5402.02430262 </i>
    <i name="pawaedc">  -5725.83564433 </i>
    <i name="eentropy">     -0.00000000 </i>
    <i name="bandstr">   -593.14043123 </i>
    <i name="atom">   6293.50105541 </i>
    <i name="e_fr_energy">    -27.12795311 </i>
    <i name="e_wo_entrp">    -27.12795311 </i>
    <i name="e_0_energy">    -27.12795311 </i>
   </energy>
  </scstep>
  <structure>
   <crystal>
    <varray name="basis" >
     <v>       1.42005454       0.81986888       5.62827908 </v>
     <v>      -1.42005454       0.81986888       5.62827908 </v>
     <v>       0.00000000      -1.63973774       5.62827908 </v>
    </varray>
    <i name="volume">     39.31663112 </i>
    <varray name="rec_basis" >
     <v>       0.35209915       0.20328454       0.05922473 </v>
     <v>      -0.35209915       0.20328454       0.05922473 </v>
     <v>      -0.00000000      -0.40656908       0.05922473 </v>
    </varray>
   </crystal>
   <varray name="positions" >
    <v>       0.00000000       0.00000000       0.00000000 </v>
    <v>       0.50000000       0.50000000       0.50000000 </v>
    <v>       0.10956395       0.10956395       0.10956395 </v>
    <v>       0.89043605       0.89043605       0.89043605 </v>
   </varray>
  </structure>
  <varray name="forces" >
   <v>       0.00000000       0.00000000       0.00000000 </v>
   <v>       0.00000000       0.00000000       0.00000000 </v>
   <v>      -0.00000000       0.00000000       0.93053098 </v>
   <v>       0.00000000      -0.00000000      -0.93053098 </v>
  </varray>
  <varray name="stress" >
   <v>    4230.13986180      -0.00000000      -0.00000000 </v>
   <v>       0.00000000    4230.13984300       0.00000215 </v>
   <v>      -0.00000000       0.00000215    3637.77055641 </v>
  </varray>
  <energy>
   <i name="e_fr_energy">    -27.12795311 </i>
   <i name="e_wo_entrp">    -27.12795311 </i>
   <i name="e_0_energy">     -0.00000000 </i>
  </energy>
  <time name="totalsc">  173.07  174.56</time>
  <eigenvalues>
   <array>
    <dimension dim="1">band</dimension>
    <dimension dim="2">kpoint</dimension>
    <dimension dim="3">spin</dimension>
    <field>eigene</field>
    <field>occ</field>
    <set>
     <set comment="spin 1">
      <set comment="kpoint 1">
       <r> -105.4652    1.0000 </r>
       <r>  -63.1592    1.0000 </r>
       <r>  -62.9724    1.0000 </r>
       <r>  -62.9562    1.0000 </r>
       <r>  -13.5039    1.0000 </r>
       <r>  -12.8146    1.0000 </r>
       <r>   -2.3011    1.0000 </r>
       <r>   -1.8668    1.0000 </r>
       <r>    0.2995    1.0000 </r>
       <r>    1.0262    1.0000 </r>
       <r>    1.9181    1.0000 </r>
       <r>    2.6360    1.0000 </r>
       <r>    3.1557    1.0000 </r>
       <r>    4.2684    1.0000 </r>
       <r>    4.5727    1.0000 </r>
       <r>    4.8364    1.0000 </r>
       <r>    5.7581    1.0000 </r>
       <r>    8.3180    0.0000 </r>
       <r>   11.8964    0.0000 </r>
       <r>   13.5608    0.0000 </r>
       <r>   16.8110    0.0000 </r>
       <r>   17.2929    0.0000 </r>
       <r>   18.2095    0.0000 </r>
       <r>   21.5742    0.0000 </r>
       <r>   21.0868    0.0000 </r>
       <r>   22.9129    0.0000 </r>
       <r>   25.7039    0.0000 </r>
       <r>   28.6394    0.0000 </r>
       <r>   28.8935    0.0000 </r>
       <r>   24.4046    0.0000 </r>
       <r>   31.3482    0.0000 </r>
       <r>   18.8336    0.0000 </r>
       <r>   34.3589    0.0000 </r>
       <r>   35.7626    0.0000 </r>
       <r>   32.5106    0.0000 </r>
       <r>   30.7093    0.0000 </r>
      </set>
      <set comment="kpoint 2">
       <r> -105.4652    1.0000 </r>
       <r>  -63.1592    1.0000 </r>
       <r>  -62.9724    1.0000 </r>
       <r>  -62.9562    1.0000 </r>
       <r>  -13.5050    1.0000 </r>
       <r>  -12.8142    1.0000 </r>
       <r>   -2.2996    1.0000 </r>
       <r>   -1.8661    1.0000 </r>
       <r>    0.2993    1.0000 </r>
       <r>    1.0255    1.0000 </r>
       <r>    1.9190    1.0000 </r>
       <r>    2.6353    1.0000 </r>
       <r>    3.1564    1.0000 </r>
       <r>    4.2686    1.0000 </r>
       <r>    4.5727    1.0000 </r>
       <r>    4.8358    1.0000 </r>
       <r>    5.7552    1.0000 </r>
       <r>    8.3195    0.0000 </r>
       <r>   11.9003    0.0000 </r>
       <r>   13.5625    0.0000 </r>
       <r>   16.8113    0.0000 </r>
       <r>   17.2922    0.0000 </r>
       <r>   18.2072    0.0000 </r>
       <r>   21.5927    0.0000 </r>
       <r>   20.6499    0.0000 </r>
       <r>   22.9120    0.0000 </r>
       <r>   20.9083    0.0000 </r>
       <r>   25.5479    0.0000 </r>
       <r>   28.6249    0.0000 </r>
       <r>   28.8938    0.0000 </r>
       <r>   31.3366    0.0000 </r>
       <r>   31.4187    0.0000 </r>
       <r>   33.0592    0.0000 </r>
       <r>   35.0206    0.0000 </r>
       <r>   34.7066    0.0000 </r>
       <r>   37.8116    0.0000 </r>
      </set>
      <set comment="kpoint 3">
       <r> -105.4652    1.0000 </r>
       <r>  -63.1592    1.0000 </r>
       <r>  -62.9724    1.0000 </r>
       <r>  -62.9562    1.0000 </r>
       <r>  -13.5042    1.0000 </r>
       <r>  -12.8145    1.0000 </r>
       <r>   -2.3007    1.0000 </r>
       <r>   -1.8666    1.0000 </r>
       <r>    0.2994    1.0000 </r>
       <r>    1.0260    1.0000 </r>
       <r>    1.9183    1.0000 </r>
       <r>    2.6358    1.0000 </r>
       <r>    3.1559    1.0000 </r>
       <r>    4.2684    1.0000 </r>
       <r>    4.5727    1.0000 </r>
       <r>    4.8363    1.0000 </r>
       <r>    5.7573    1.0000 </r>
       <r>    8.3184    0.0000 </r>
       <r>   11.8973    0.0000 </r>
       <r>   13.5612    0.0000 </r>
       <r>   16.8111    0.0000 </r>
       <r>   17.2927    0.0000 </r>
       <r>   18.2089    0.0000 </r>
       <r>   21.5805    0.0000 </r>
       <r>   20.8283    0.0000 </r>
       <r>   22.9087    0.0000 </r>
       <r>   23.6517    0.0000 </r>
       <r>   28.6358    0.0000 </r>
       <r>   28.8936    0.0000 </r>
       <r>   31.3361    0.0000 </r>
       <r>   31.4187    0.0000 </r>
       <r>   33.0520    0.0000 </r>
       <r>   33.6749    0.0000 </r>
       <r>   36.7480    0.0000 </r>
       <r>   31.4676    0.0000 </r>
       <r>   38.6962    0.0000 </r>
      </set>
      <set comment="kpoint 4">
       <r> -105.4652    1.0000 </r>
       <r>  -63.1592    1.0000 </r>
       <r>  -62.9724    1.0000 </r>
       <r>  -62.9562    1.0000 </r>
       <r>  -13.5042    1.0000 </r>
       <r>  -12.8145    1.0000 </r>
       <r>   -2.3007    1.0000 </r>
       <r>   -1.8666    1.0000 </r>
       <r>    0.2994    1.0000 </r>
       <r>    1.0260    1.0000 </r>
       <r>    1.9183    1.0000 </r>
       <r>    2.6358    1.0000 </r>
       <r>    3.1559    1.0000 </r>
       <r>    4.2684    1.0000 </r>
       <r>    4.5727    1.0000 </r>
       <r>    4.8363    1.0000 </r>
       <r>    5.7573    1.0000 </r>
       <r>    8.3184    0.0000 </r>
       <r>   11.8973    0.0000 </r>
       <r>   13.5612    0.0000 </r>
       <r>   16.8111    0.0000 </r>
       <r>   17.2927    0.0000 </r>
       <r>   18.2073    0.0000 </r>
       <r>   18.7393    0.0000 </r>
       <r>   21.5802    0.0000 </r>
       <r>   21.4425    0.0000 </r>
       <r>   22.6956    0.0000 </r>
       <r>   25.7060    0.0000 </r>
       <r>   28.6358    0.0000 </r>
       <r>   28.8936    0.0000 </r>
       <r>   30.2141    0.0000 </r>
       <r>   30.6454    0.0000 </r>
       <r>   33.0028    0.0000 </r>
       <r>   33.0599    0.0000 </r>
       <r>   20.8964    0.0000 </r>
       <r>   35.7219    0.0000 </r>
      </set>
      <set comment="kpoint 5">
       <r> -105.4652    1.0000 </r>
       <r>  -63.1592    1.0000 </r>
       <r>  -62.9724    1.0000 </r>
       <r>  -62.9562    1.0000 </r>
       <r>  -13.5050    1.0000 </r>
       <r>  -12.8142    1.0000 </r>
       <r>   -2.2996    1.0000 </r>
       <r>   -1.8661    1.0000 </r>
       <r>    0.2993    1.0000 </r>
       <r>    1.0255    1.0000 </r>
       <r>    1.9190    1.0000 </r>
       <r>    2.6353    1.0000 </r>
       <r>    3.1564    1.0000 </r>
       <r>    4.2686    1.0000 </r>
       <r>    4.5727    1.0000 </r>
       <r>    4.8358    1.0000 </r>
       <r>    5.7552    1.0000 </r>
       <r>    8.3195    0.0000 </r>
       <r>   11.9003    0.0000 </r>
       <r>   13.5625    0.0000 </r>
       <r>   16.8113    0.0000 </r>
       <r>   17.2922    0.0000 </r>
       <r>   18.2070    0.0000 </r>
       <r>   21.5932    0.0000 </r>
       <r>   22.9130    0.0000 </r>
       <r>   25.7084    0.0000 </r>
       <r>   28.6136    0.0000 </r>
       <r>   28.8359    0.0000 </r>
       <r>   14.3891    0.0000 </r>
       <r>   31.3360    0.0000 </r>
       <r>   31.4186    0.0000 </r>
       <r>   18.6792    0.0000 </r>
       <r>   33.0094    0.0000 </r>
       <r>   33.0650    0.0000 </r>
       <r>   35.7721    0.0000 </r>
       <r>   39.3342    0.0000 </r>
      </set>
      <set comment="kpoint 6">
       <r> -105.4652    1.0000 </r>
       <r>  -63.1592    1.0000 </r>
       <r>  -62.9724    1.0000 </r>
       <r>  -62.9562    1.0000 </r>
       <r>  -13.5040    1.0000 </r>
       <r>  -12.8144    1.0000 </r>
       <r>   -2.3001    1.0000 </r>
       <r>   -1.8662    1.0000 </r>
       <r>    0.2996    1.0000 </r>
       <r>    1.0231    1.0000 </r>
       <r>    1.9196    1.0000 </r>
       <r>    2.6334    1.0000 </r>
       <r>    3.1573    1.0000 </r>
       <r>    4.2686    1.0000 </r>
       <r>    4.5725    1.0000 </r>
       <r>    4.8355    1.0000 </r>
       <r>    5.7571    1.0000 </r>
       <r>    8.3201    0.0000 </r>
       <r>   11.8987    0.0000 </r>
       <r>   13.5638    0.0000 </r>
       <r>   16.8121    0.0000 </r>
       <r>   17.2926    0.0000 </r>
       <r>   18.2080    0.0000 </r>
       <r>   21.2828    0.0000 </r>
       <r>   21.6092    0.0000 </r>
       <r>   22.9127    0.0000 </r>
       <r>   25.7140    0.0000 </r>
       <r>   12.4777    0.0000 </r>
       <r>   28.6278    0.0000 </r>
       <r>   28.8835    0.0000 </r>
       <r>   16.8328    0.0000 </r>
       <r>   31.3474    0.0000 </r>
       <r>   31.4172    0.0000 </r>
       <r>   32.9575    0.0000 </r>
       <r>   33.0037    0.0000 </r>
       <r>   35.7224    0.0000 </r>
      </set>
      <set comment="kpoint 7">
       <r> -105.4652    1.0000 </r>
       <r>  -63.1592    1.0000 </r>
       <r>  -62.9724    1.0000 </r>
       <r>  -62.9562    1.0000 </r>
       <r>  -13.5039    1.0000 </r>
       <r>  -12.8145    1.0000 </r>
       <r>   -2.3009    1.0000 </r>
       <r>   -1.8666    1.0000 </r>
       <r>    0.2995    1.0000 </r>
       <r>    1.0254    1.0000 </r>
       <r>    1.9185    1.0000 </r>
       <r>    2.6353    1.0000 </r>
       <r>    3.1561    1.0000 </r>
       <r>    4.2684    1.0000 </r>
       <r>    4.5727    1.0000 </r>
       <r>    4.8362    1.0000 </r>
       <r>    5.7578    1.0000 </r>
       <r>    8.3185    0.0000 </r>
       <r>   11.8969    0.0000 </r>
       <r>   13.5615    0.0000 </r>
       <r>   16.8113    0.0000 </r>
       <r>   17.2928    0.0000 </r>
       <r>   18.2089    0.0000 </r>
       <r>   16.4493    0.0000 </r>
       <r>   21.2348    0.0000 </r>
       <r>   21.5813    0.0000 </r>
       <r>   15.3770    0.0000 </r>
       <r>   22.8219    0.0000 </r>
       <r>   25.7074    0.0000 </r>
       <r>   28.6365    0.0000 </r>
       <r>   28.8910    0.0000 </r>
       <r>   31.3390    0.0000 </r>
       <r>   31.4190    0.0000 </r>
       <r>   33.0575    0.0000 </r>
       <r>   33.9480    0.0000 </r>
       <r>   36.4504    0.0000 </r>
      </set>
      <set comment="kpoint 8">
       <r> -105.4652    1.0000 </r>
       <r>  -63.1592    1.0000 </r>
       <r>  -62.9724    1.0000 </r>
       <r>  -62.9562    1.0000 </r>
       <r>  -13.5039    1.0000 </r>
       <r>  -12.8145    1.0000 </r>
       <r>   -2.3009    1.0000 </r>
       <r>   -1.8666    1.0000 </r>
       <r>    0.2995    1.0000 </r>
       <r>    1.0254    1.0000 </r>
       <r>    1.9185    1.0000 </r>
       <r>    2.6353    1.0000 </r>
       <r>    3.1561    1.0000 </r>
       <r>    4.2684    1.0000 </r>
       <r>    4.5727    1.0000 </r>
       <r>    4.8362    1.0000 </r>
       <r>    5.7578    1.0000 </r>
       <r>    8.3185    0.0000 </r>
       <r>   11.8969    0.0000 </r>
       <r>   13.5615    0.0000 </r>
       <r>   16.8113    0.0000 </r>
       <r>   17.2928    0.0000 </r>
       <r>   18.2090    0.0000 </r>
       <r>   21.5848    0.0000 </r>
       <r>   19.6000    0.0000 </r>
       <r>   22.9126    0.0000 </r>
       <r>   22.4877    0.0000 </r>
       <r>   28.6365    0.0000 </r>
       <r>   28.8910    0.0000 </r>
       <r>   31.3390    0.0000 </r>
       <r>   31.4189    0.0000 </r>
       <r>   32.9790    0.0000 </r>
       <r>   33.0539    0.0000 </r>
       <r>   18.2636    0.0000 </r>
       <r>   35.7941    0.0000 </r>
       <r>   40.9328    0.0000 </r>
      </set>
      <set comment="kpoint 9">
       <r> -105.4652    1.0000 </r>
       <r>  -63.1592    1.0000 </r>
       <r>  -62.9724    1.0000 </r>
       <r>  -62.9562    1.0000 </r>
       <r>  -13.5040    1.0000 </r>
       <r>  -12.8144    1.0000 </r>
       <r>   -2.3001    1.0000 </r>
       <r>   -1.8662    1.0000 </r>
       <r>    0.2996    1.0000 </r>
       <r>    1.0231    1.0000 </r>
       <r>    1.9196    1.0000 </r>
       <r>    2.6334    1.0000 </r>
       <r>    3.1573    1.0000 </r>
       <r>    4.2686    1.0000 </r>
       <r>    4.5725    1.0000 </r>
       <r>    4.8355    1.0000 </r>
       <r>    5.7571    1.0000 </r>
       <r>    8.3201    0.0000 </r>
       <r>   11.8987    0.0000 </r>
       <r>   13.5638    0.0000 </r>
       <r>   16.8121    0.0000 </r>
       <r>   17.2926    0.0000 </r>
       <r>   18.2078    0.0000 </r>
       <r>   21.2827    0.0000 </r>
       <r>   21.6089    0.0000 </r>
       <r>   22.8947    0.0000 </r>
       <r>   25.4654    0.0000 </r>
       <r>   21.3873    0.0000 </r>
       <r>   28.6278    0.0000 </r>
       <r>   28.8835    0.0000 </r>
       <r>   31.3478    0.0000 </r>
       <r>   31.4190    0.0000 </r>
       <r>   33.0061    0.0000 </r>
       <r>   33.0610    0.0000 </r>
       <r>   35.7523    0.0000 </r>
       <r>   27.8452    0.0000 </r>
      </set>
      <set comment="kpoint 10">
       <r> -105.4652    1.0000 </r>
       <r>  -63.1592    1.0000 </r>
       <r>  -62.9724    1.0000 </r>
       <r>  -62.9562    1.0000 </r>
       <r>  -13.5036    1.0000 </r>
       <r>  -12.8149    1.0000 </r>
       <r>   -2.3019    1.0000 </r>
       <r>   -1.8655    1.0000 </r>
       <r>    0.3005    1.0000 </r>
       <r>    1.0267    1.0000 </r>
       <r>    1.9158    1.0000 </r>
       <r>    2.6346    1.0000 </r>
       <r>    3.1557    1.0000 </r>
       <r>    4.2687    1.0000 </r>
       <r>    4.5738    1.0000 </r>
       <r>    4.8364    1.0000 </r>
       <r>    5.7577    1.0000 </r>
       <r>    8.3189    0.0000 </r>
       <r>   11.8985    0.0000 </r>
       <r>   13.5611    0.0000 </r>
       <r>   16.8029    0.0000 </r>
       <r>   17.2960    0.0000 </r>
       <r>   18.2075    0.0000 </r>
       <r>   21.5867    0.0000 </r>
       <r>   18.9018    0.0000 </r>
       <r>   22.9159    0.0000 </r>
       <r>   22.1336    0.0000 </r>
       <r>   25.7108    0.0000 </r>
       <r>   28.8742    0.0000 </r>
       <r>   30.0754    0.0000 </r>
       <r>   31.5144    0.0000 </r>
       <r>   33.6071    0.0000 </r>
       <r>   25.2360    0.0000 </r>
       <r>   35.7538    0.0000 </r>
       <r>   21.5720    0.0000 </r>
       <r>   31.5776    0.0000 </r>
      </set>
      <set comment="kpoint 11">
       <r> -105.4652    1.0000 </r>
       <r>  -63.1592    1.0000 </r>
       <r>  -62.9724    1.0000 </r>
       <r>  -62.9562    1.0000 </r>
       <r>  -13.5038    1.0000 </r>
       <r>  -12.8146    1.0000 </r>
       <r>   -2.3013    1.0000 </r>
       <r>   -1.8665    1.0000 </r>
       <r>    0.2997    1.0000 </r>
       <r>    1.0263    1.0000 </r>
       <r>    1.9175    1.0000 </r>
       <r>    2.6356    1.0000 </r>
       <r>    3.1557    1.0000 </r>
       <r>    4.2685    1.0000 </r>
       <r>    4.5730    1.0000 </r>
       <r>    4.8364    1.0000 </r>
       <r>    5.7580    1.0000 </r>
       <r>    8.3182    0.0000 </r>
       <r>   11.8969    0.0000 </r>
       <r>   13.5608    0.0000 </r>
       <r>   16.8090    0.0000 </r>
       <r>   17.2937    0.0000 </r>
       <r>   18.2083    0.0000 </r>
       <r>   19.2047    0.0000 </r>
       <r>   21.3148    0.0000 </r>
       <r>   21.5788    0.0000 </r>
       <r>   22.9133    0.0000 </r>
       <r>   25.7066    0.0000 </r>
       <r>   28.6305    0.0000 </r>
       <r>   28.9032    0.0000 </r>
       <r>   19.9789    0.0000 </r>
       <r>   31.4434    0.0000 </r>
       <r>   22.3387    0.0000 </r>
       <r>   33.0038    0.0000 </r>
       <r>   34.0673    0.0000 </r>
       <r>   35.8030    0.0000 </r>
      </set>
      <set comment="kpoint 12">
       <r> -105.4652    1.0000 </r>
       <r>  -63.1592    1.0000 </r>
       <r>  -62.9724    1.0000 </r>
       <r>  -62.9562    1.0000 </r>
       <r>  -13.5038    1.0000 </r>
       <r>  -12.8146    1.0000 </r>
       <r>   -2.3013    1.0000 </r>
       <r>   -1.8665    1.0000 </r>
       <r>    0.2997    1.0000 </r>
       <r>    1.0263    1.0000 </r>
       <r>    1.9175    1.0000 </r>
       <r>    2.6356    1.0000 </r>
       <r>    3.1557    1.0000 </r>
       <r>    4.2685    1.0000 </r>
       <r>    4.5730    1.0000 </r>
       <r>    4.8364    1.0000 </r>
       <r>    5.7580    1.0000 </r>
       <r>    8.3182    0.0000 </r>
       <r>   11.8969    0.0000 </r>
       <r>   13.5608    0.0000 </r>
       <r>   16.8090    0.0000 </r>
       <r>   17.2937    0.0000 </r>
       <r>   18.2085    0.0000 </r>
       <r>   21.5788    0.0000 </r>
       <r>   22.9136    0.0000 </r>
       <r>   25.7056    0.0000 </r>
       <r>   11.8114    0.0000 </r>
       <r>   28.6304    0.0000 </r>
       <r>   28.9031    0.0000 </r>
       <r>   16.3825    0.0000 </r>
       <r>   31.4554    0.0000 </r>
       <r>   33.6733    0.0000 </r>
       <r>   33.0460    0.0000 </r>
       <r>   25.9186    0.0000 </r>
       <r>   23.0863    0.0000 </r>
       <r>   36.2635    0.0000 </r>
      </set>
      <set comment="kpoint 13">
       <r> -105.4652    1.0000 </r>
       <r>  -63.1592    1.0000 </r>
       <r>  -62.9724    1.0000 </r>
       <r>  -62.9562    1.0000 </r>
       <r>  -13.5036    1.0000 </r>
       <r>  -12.8149    1.0000 </r>
       <r>   -2.3019    1.0000 </r>
       <r>   -1.8655    1.0000 </r>
       <r>    0.3005    1.0000 </r>
       <r>    1.0267    1.0000 </r>
       <r>    1.9158    1.0000 </r>
       <r>    2.6346    1.0000 </r>
       <r>    3.1557    1.0000 </r>
       <r>    4.2687    1.0000 </r>
       <r>    4.5738    1.0000 </r>
       <r>    4.8364    1.0000 </r>
       <r>    5.7577    1.0000 </r>
       <r>    8.3189    0.0000 </r>
       <r>   11.8985    0.0000 </r>
       <r>   13.5611    0.0000 </r>
       <r>   16.8029    0.0000 </r>
       <r>   17.2960    0.0000 </r>
       <r>   18.2077    0.0000 </r>
       <r>   20.2441    0.0000 </r>
       <r>   21.5508    0.0000 </r>
       <r>   21.2256    0.0000 </r>
       <r>   22.9027    0.0000 </r>
       <r>   25.7097    0.0000 </r>
       <r>   28.6068    0.0000 </r>
       <r>   28.9290    0.0000 </r>
       <r>   18.5475    0.0000 </r>
       <r>   31.2308    0.0000 </r>
       <r>   31.5180    0.0000 </r>
       <r>   33.0749    0.0000 </r>
       <r>   30.9522    0.0000 </r>
       <r>   35.2945    0.0000 </r>
      </set>
      <set comment="kpoint 14">
       <r> -105.4652    1.0000 </r>
       <r>  -63.1591    1.0000 </r>
       <r>  -62.9724    1.0000 </r>
       <r>  -62.9562    1.0000 </r>
       <r>  -13.5070    1.0000 </r>
       <r>  -12.8138    1.0000 </r>
       <r>   -2.2977    1.0000 </r>
       <r>   -1.8654    1.0000 </r>
       <r>    0.2988    1.0000 </r>
       <r>    1.0265    1.0000 </r>
       <r>    1.9194    1.0000 </r>
       <r>    2.6361    1.0000 </r>
       <r>    3.1564    1.0000 </r>
       <r>    4.2689    1.0000 </r>
       <r>    4.5729    1.0000 </r>
       <r>    4.8354    1.0000 </r>
       <r>    5.7508    1.0000 </r>
       <r>    8.3206    0.0000 </r>
       <r>   11.9054    0.0000 </r>
       <r>   13.5631    0.0000 </r>
       <r>   16.8109    0.0000 </r>
       <r>   17.2912    0.0000 </r>
       <r>   18.2028    0.0000 </r>
       <r>   21.3074    0.0000 </r>
       <r>   20.5042    0.0000 </r>
       <r>   19.9037    0.0000 </r>
       <r>   22.9022    0.0000 </r>
       <r>   25.7074    0.0000 </r>
       <r>   28.6089    0.0000 </r>
       <r>   28.9009    0.0000 </r>
       <r>   31.3288    0.0000 </r>
       <r>   31.4182    0.0000 </r>
       <r>   29.3712    0.0000 </r>
       <r>   32.6276    0.0000 </r>
       <r>   25.9762    0.0000 </r>
       <r>   35.7786    0.0000 </r>
      </set>
      <set comment="kpoint 15">
       <r> -105.4652    1.0000 </r>
       <r>  -63.1592    1.0000 </r>
       <r>  -62.9724    1.0000 </r>
       <r>  -62.9562    1.0000 </r>
       <r>  -13.5052    1.0000 </r>
       <r>  -12.8142    1.0000 </r>
       <r>   -2.2993    1.0000 </r>
       <r>   -1.8660    1.0000 </r>
       <r>    0.2993    1.0000 </r>
       <r>    1.0250    1.0000 </r>
       <r>    1.9193    1.0000 </r>
       <r>    2.6349    1.0000 </r>
       <r>    3.1567    1.0000 </r>
       <r>    4.2687    1.0000 </r>
       <r>    4.5727    1.0000 </r>
       <r>    4.8356    1.0000 </r>
       <r>    5.7547    1.0000 </r>
       <r>    8.3200    0.0000 </r>
       <r>   11.9011    0.0000 </r>
       <r>   13.5631    0.0000 </r>
       <r>   16.8114    0.0000 </r>
       <r>   17.2921    0.0000 </r>
       <r>   18.2040    0.0000 </r>
       <r>   21.2975    0.0000 </r>
       <r>   21.5993    0.0000 </r>
       <r>   20.2166    0.0000 </r>
       <r>   22.8716    0.0000 </r>
       <r>   25.7100    0.0000 </r>
       <r>   28.6216    0.0000 </r>
       <r>   28.8925    0.0000 </r>
       <r>   15.4279    0.0000 </r>
       <r>   31.3380    0.0000 </r>
       <r>   31.4188    0.0000 </r>
       <r>   33.0097    0.0000 </r>
       <r>   33.0592    0.0000 </r>
       <r>   36.9420    0.0000 </r>
      </set>
      <set comment="kpoint 16">
       <r> -105.4652    1.0000 </r>
       <r>  -63.1592    1.0000 </r>
       <r>  -62.9724    1.0000 </r>
       <r>  -62.9562    1.0000 </r>
       <r>  -13.5034    1.0000 </r>
       <r>  -12.8145    1.0000 </r>
       <r>   -2.3002    1.0000 </r>
       <r>   -1.8661    1.0000 </r>
       <r>    0.2998    1.0000 </r>
       <r>    1.0209    1.0000 </r>
       <r>    1.9204    1.0000 </r>
       <r>    2.6315    1.0000 </r>
       <r>    3.1583    1.0000 </r>
       <r>    4.2686    1.0000 </r>
       <r>    4.5723    1.0000 </r>
       <r>    4.8351    1.0000 </r>
       <r>    5.7580    1.0000 </r>
       <r>    8.3211    0.0000 </r>
       <r>   11.8984    0.0000 </r>
       <r>   13.5654    0.0000 </r>
       <r>   16.8128    0.0000 </r>
       <r>   17.2929    0.0000 </r>
       <r>   18.2080    0.0000 </r>
       <r>   21.2644    0.0000 </r>
       <r>   21.6012    0.0000 </r>
       <r>   22.9092    0.0000 </r>
       <r>   21.4230    0.0000 </r>
       <r>   25.3570    0.0000 </r>
       <r>   28.4704    0.0000 </r>
       <r>   14.8278    0.0000 </r>
       <r>   28.8731    0.0000 </r>
       <r>   31.3600    0.0000 </r>
       <r>   34.4069    0.0000 </r>
       <r>   33.1165    0.0000 </r>
       <r>   31.4481    0.0000 </r>
       <r>   35.4447    0.0000 </r>
      </set>
      <set comment="kpoint 17">
       <r> -105.4652    1.0000 </r>
       <r>  -63.1591    1.0000 </r>
       <r>  -62.9724    1.0000 </r>
       <r>  -62.9561    1.0000 </r>
       <r>  -13.5034    1.0000 </r>
       <r>  -12.8144    1.0000 </r>
       <r>   -2.2995    1.0000 </r>
       <r>   -1.8657    1.0000 </r>
       <r>    0.3000    1.0000 </r>
       <r>    1.0183    1.0000 </r>
       <r>    1.9216    1.0000 </r>
       <r>    2.6293    1.0000 </r>
       <r>    3.1596    1.0000 </r>
       <r>    4.2687    1.0000 </r>
       <r>    4.5722    1.0000 </r>
       <r>    4.8343    1.0000 </r>
       <r>    5.7576    1.0000 </r>
       <r>    8.3227    0.0000 </r>
       <r>   11.9000    0.0000 </r>
       <r>   13.5679    0.0000 </r>
       <r>   16.8137    0.0000 </r>
       <r>   17.2927    0.0000 </r>
       <r>   18.2065    0.0000 </r>
       <r>   20.7219    0.0000 </r>
       <r>   21.6459    0.0000 </r>
       <r>   22.8790    0.0000 </r>
       <r>   24.7266    0.0000 </r>
       <r>   23.8039    0.0000 </r>
       <r>   28.6184    0.0000 </r>
       <r>   28.8661    0.0000 </r>
       <r>   31.3994    0.0000 </r>
       <r>   30.5530    0.0000 </r>
       <r>   33.0348    0.0000 </r>
       <r>   33.4661    0.0000 </r>
       <r>   35.8036    0.0000 </r>
       <r>   26.2397    0.0000 </r>
      </set>
      <set comment="kpoint 18">
       <r> -105.4652    1.0000 </r>
       <r>  -63.1592    1.0000 </r>
       <r>  -62.9724    1.0000 </r>
       <r>  -62.9562    1.0000 </r>
       <r>  -13.5060    1.0000 </r>
       <r>  -12.8140    1.0000 </r>
       <r>   -2.2989    1.0000 </r>
       <r>   -1.8659    1.0000 </r>
       <r>    0.2990    1.0000 </r>
       <r>    1.0267    1.0000 </r>
       <r>    1.9188    1.0000 </r>
       <r>    2.6363    1.0000 </r>
       <r>    3.1560    1.0000 </r>
       <r>    4.2687    1.0000 </r>
       <r>    4.5729    1.0000 </r>
       <r>    4.8359    1.0000 </r>
       <r>    5.7532    1.0000 </r>
       <r>    8.3196    0.0000 </r>
       <r>   11.9023    0.0000 </r>
       <r>   13.5620    0.0000 </r>
       <r>   16.8108    0.0000 </r>
       <r>   17.2917    0.0000 </r>
       <r>   18.2059    0.0000 </r>
       <r>   21.2520    0.0000 </r>
       <r>   21.5862    0.0000 </r>
       <r>   22.9012    0.0000 </r>
       <r>   25.7058    0.0000 </r>
       <r>   28.6196    0.0000 </r>
       <r>   28.9000    0.0000 </r>
       <r>   31.3296    0.0000 </r>
       <r>   31.4112    0.0000 </r>
       <r>   18.6050    0.0000 </r>
       <r>   32.9988    0.0000 </r>
       <r>   34.0426    0.0000 </r>
       <r>   35.8508    0.0000 </r>
       <r>   37.2236    0.0000 </r>
      </set>
      <set comment="kpoint 19">
       <r> -105.4652    1.0000 </r>
       <r>  -63.1592    1.0000 </r>
       <r>  -62.9724    1.0000 </r>
       <r>  -62.9562    1.0000 </r>
       <r>  -13.5046    1.0000 </r>
       <r>  -12.8144    1.0000 </r>
       <r>   -2.3003    1.0000 </r>
       <r>   -1.8664    1.0000 </r>
       <r>    0.2993    1.0000 </r>
       <r>    1.0263    1.0000 </r>
       <r>    1.9184    1.0000 </r>
       <r>    2.6360    1.0000 </r>
       <r>    3.1559    1.0000 </r>
       <r>    4.2685    1.0000 </r>
       <r>    4.5728    1.0000 </r>
       <r>    4.8362    1.0000 </r>
       <r>    5.7562    1.0000 </r>
       <r>    8.3187    0.0000 </r>
       <r>   11.8986    0.0000 </r>
       <r>   13.5614    0.0000 </r>
       <r>   16.8110    0.0000 </r>
       <r>   17.2924    0.0000 </r>
       <r>   18.2077    0.0000 </r>
       <r>   21.5683    0.0000 </r>
       <r>   22.9121    0.0000 </r>
       <r>   23.7886    0.0000 </r>
       <r>   23.7743    0.0000 </r>
       <r>   28.6314    0.0000 </r>
       <r>   28.8956    0.0000 </r>
       <r>   16.0274    0.0000 </r>
       <r>   31.3316    0.0000 </r>
       <r>   30.7865    0.0000 </r>
       <r>   33.0185    0.0000 </r>
       <r>   33.0702    0.0000 </r>
       <r>   35.8493    0.0000 </r>
       <r>   28.9364    0.0000 </r>
      </set>
      <set comment="kpoint 20">
       <r> -105.4652    1.0000 </r>
       <r>  -63.1592    1.0000 </r>
       <r>  -62.9724    1.0000 </r>
       <r>  -62.9562    1.0000 </r>
       <r>  -13.5037    1.0000 </r>
       <r>  -12.8145    1.0000 </r>
       <r>   -2.3007    1.0000 </r>
       <r>   -1.8665    1.0000 </r>
       <r>    0.2996    1.0000 </r>
       <r>    1.0242    1.0000 </r>
       <r>    1.9190    1.0000 </r>
       <r>    2.6343    1.0000 </r>
       <r>    3.1567    1.0000 </r>
       <r>    4.2685    1.0000 </r>
       <r>    4.5726    1.0000 </r>
       <r>    4.8359    1.0000 </r>
       <r>    5.7579    1.0000 </r>
       <r>    8.3192    0.0000 </r>
       <r>   11.8973    0.0000 </r>
       <r>   13.5625    0.0000 </r>
       <r>   16.8117    0.0000 </r>
       <r>   17.2928    0.0000 </r>
       <r>   18.2058    0.0000 </r>
       <r>   21.2930    0.0000 </r>
       <r>   21.5966    0.0000 </r>
       <r>   22.9126    0.0000 </r>
       <r>   21.0772    0.0000 </r>
       <r>   25.7106    0.0000 </r>
       <r>   28.6342    0.0000 </r>
       <r>   28.8866    0.0000 </r>
       <r>   31.3441    0.0000 </r>
       <r>   31.4189    0.0000 </r>
       <r>   22.4270    0.0000 </r>
       <r>   33.8514    0.0000 </r>
       <r>   32.7430    0.0000 </r>
       <r>   36.0639    0.0000 </r>
      </set>
      <set comment="kpoint 21">
       <r> -105.4652    1.0000 </r>
       <r>  -63.1592    1.0000 </r>
       <r>  -62.9724    1.0000 </r>
       <r>  -62.9562    1.0000 </r>
       <r>  -13.5042    1.0000 </r>
       <r>  -12.8144    1.0000 </r>
       <r>   -2.2998    1.0000 </r>
       <r>   -1.8660    1.0000 </r>
       <r>    0.2996    1.0000 </r>
       <r>    1.0226    1.0000 </r>
       <r>    1.9199    1.0000 </r>
       <r>    2.6330    1.0000 </r>
       <r>    3.1576    1.0000 </r>
       <r>    4.2686    1.0000 </r>
       <r>    4.5725    1.0000 </r>
       <r>    4.8353    1.0000 </r>
       <r>    5.7566    1.0000 </r>
       <r>    8.3206    0.0000 </r>
       <r>   11.8995    0.0000 </r>
       <r>   13.5644    0.0000 </r>
       <r>   16.8122    0.0000 </r>
       <r>   17.2925    0.0000 </r>
       <r>   18.2070    0.0000 </r>
       <r>   21.2778    0.0000 </r>
       <r>   21.6147    0.0000 </r>
       <r>   22.9127    0.0000 </r>
       <r>   25.7154    0.0000 </r>
       <r>   28.6244    0.0000 </r>
       <r>   28.8824    0.0000 </r>
       <r>   31.3490    0.0000 </r>
       <r>   31.4191    0.0000 </r>
       <r>   32.7040    0.0000 </r>
       <r>   33.0085    0.0000 </r>
       <r>   20.4400    0.0000 </r>
       <r>   35.7232    0.0000 </r>
       <r>   28.0643    0.0000 </r>
      </set>
      <set comment="kpoint 22">
       <r> -105.4652    1.0000 </r>
       <r>  -63.1592    1.0000 </r>
       <r>  -62.9724    1.0000 </r>
       <r>  -62.9562    1.0000 </r>
       <r>  -13.5042    1.0000 </r>
       <r>  -12.8144    1.0000 </r>
       <r>   -2.2998    1.0000 </r>
       <r>   -1.8660    1.0000 </r>
       <r>    0.2996    1.0000 </r>
       <r>    1.0226    1.0000 </r>
       <r>    1.9199    1.0000 </r>
       <r>    2.6330    1.0000 </r>
       <r>    3.1576    1.0000 </r>
       <r>    4.2686    1.0000 </r>
       <r>    4.5725    1.0000 </r>
       <r>    4.8353    1.0000 </r>
       <r>    5.7566    1.0000 </r>
       <r>    8.3206    0.0000 </r>
       <r>   11.8995    0.0000 </r>
       <r>   13.5644    0.0000 </r>
       <r>   16.8122    0.0000 </r>
       <r>   17.2925    0.0000 </r>
       <r>   18.2075    0.0000 </r>
       <r>   21.2761    0.0000 </r>
       <r>   21.6112    0.0000 </r>
       <r>   22.9093    0.0000 </r>
       <r>   25.7154    0.0000 </r>
       <r>   28.6244    0.0000 </r>
       <r>   28.8824    0.0000 </r>
       <r>   20.7614    0.0000 </r>
       <r>   31.3489    0.0000 </r>
       <r>   31.4190    0.0000 </r>
       <r>   33.0075    0.0000 </r>
       <r>   33.0641    0.0000 </r>
       <r>   21.5013    0.0000 </r>
       <r>   32.4800    0.0000 </r>
      </set>
      <set comment="kpoint 23">
       <r> -105.4652    1.0000 </r>
       <r>  -63.1592    1.0000 </r>
       <r>  -62.9724    1.0000 </r>
       <r>  -62.9562    1.0000 </r>
       <r>  -13.5037    1.0000 </r>
       <r>  -12.8145    1.0000 </r>
       <r>   -2.3007    1.0000 </r>
       <r>   -1.8665    1.0000 </r>
       <r>    0.2996    1.0000 </r>
       <r>    1.0242    1.0000 </r>
       <r>    1.9190    1.0000 </r>
       <r>    2.6343    1.0000 </r>
       <r>    3.1567    1.0000 </r>
       <r>    4.2685    1.0000 </r>
       <r>    4.5726    1.0000 </r>
       <r>    4.8359    1.0000 </r>
       <r>    5.7579    1.0000 </r>
       <r>    8.3192    0.0000 </r>
       <r>   11.8973    0.0000 </r>
       <r>   13.5625    0.0000 </r>
       <r>   16.8117    0.0000 </r>
       <r>   17.2928    0.0000 </r>
       <r>   18.2089    0.0000 </r>
       <r>   21.5943    0.0000 </r>
       <r>   21.0483    0.0000 </r>
       <r>   22.9100    0.0000 </r>
       <r>   21.2805    0.0000 </r>
       <r>   25.7105    0.0000 </r>
       <r>   28.6342    0.0000 </r>
       <r>   28.8866    0.0000 </r>
       <r>   31.3420    0.0000 </r>
       <r>   31.4117    0.0000 </r>
       <r>   27.6920    0.0000 </r>
       <r>   33.7775    0.0000 </r>
       <r>   33.1000    0.0000 </r>
       <r>   33.8660    0.0000 </r>
      </set>
      <set comment="kpoint 24">
       <r> -105.4652    1.0000 </r>
       <r>  -63.1592    1.0000 </r>
       <r>  -62.9724    1.0000 </r>
       <r>  -62.9562    1.0000 </r>
       <r>  -13.5046    1.0000 </r>
       <r>  -12.8144    1.0000 </r>
       <r>   -2.3003    1.0000 </r>
       <r>   -1.8664    1.0000 </r>
       <r>    0.2993    1.0000 </r>
       <r>    1.0263    1.0000 </r>
       <r>    1.9184    1.0000 </r>
       <r>    2.6360    1.0000 </r>
       <r>    3.1559    1.0000 </r>
       <r>    4.2685    1.0000 </r>
       <r>    4.5728    1.0000 </r>
       <r>    4.8362    1.0000 </r>
       <r>    5.7562    1.0000 </r>
       <r>    8.3187    0.0000 </r>
       <r>   11.8986    0.0000 </r>
       <r>   13.5614    0.0000 </r>
       <r>   16.8110    0.0000 </r>
       <r>   17.2924    0.0000 </r>
       <r>   18.1982    0.0000 </r>
       <r>   21.3124    0.0000 </r>
       <r>   21.5801    0.0000 </r>
       <r>   22.9130    0.0000 </r>
       <r>   25.7058    0.0000 </r>
       <r>   28.6316    0.0000 </r>
       <r>   28.8956    0.0000 </r>
       <r>   31.3340    0.0000 </r>
       <r>   31.3856    0.0000 </r>
       <r>   18.1505    0.0000 </r>
       <r>   32.9546    0.0000 </r>
       <r>   33.9750    0.0000 </r>
       <r>   35.9075    0.0000 </r>
       <r>   34.2506    0.0000 </r>
      </set>
      <set comment="kpoint 25">
       <r> -105.4652    1.0000 </r>
       <r>  -63.1592    1.0000 </r>
       <r>  -62.9724    1.0000 </r>
       <r>  -62.9562    1.0000 </r>
       <r>  -13.5060    1.0000 </r>
       <r>  -12.8140    1.0000 </r>
       <r>   -2.2989    1.0000 </r>
       <r>   -1.8659    1.0000 </r>
       <r>    0.2990    1.0000 </r>
       <r>    1.0267    1.0000 </r>
       <r>    1.9188    1.0000 </r>
       <r>    2.6363    1.0000 </r>
       <r>    3.1560    1.0000 </r>
       <r>    4.2687    1.0000 </r>
       <r>    4.5729    1.0000 </r>
       <r>    4.8359    1.0000 </r>
       <r>    5.7532    1.0000 </r>
       <r>    8.3196    0.0000 </r>
       <r>   11.9023    0.0000 </r>
       <r>   13.5620    0.0000 </r>
       <r>   16.8108    0.0000 </r>
       <r>   17.2917    0.0000 </r>
       <r>   18.2041    0.0000 </r>
       <r>   21.1974    0.0000 </r>
       <r>   21.5684    0.0000 </r>
       <r>   22.9132    0.0000 </r>
       <r>   24.5989    0.0000 </r>
       <r>   23.3721    0.0000 </r>
       <r>   28.6196    0.0000 </r>
       <r>   28.9000    0.0000 </r>
       <r>   31.3315    0.0000 </r>
       <r>   31.4185    0.0000 </r>
       <r>   33.0246    0.0000 </r>
       <r>   35.9608    0.0000 </r>
       <r>   30.0303    0.0000 </r>
       <r>   34.7600    0.0000 </r>
      </set>
      <set comment="kpoint 26">
       <r> -105.4652    1.0000 </r>
       <r>  -63.1591    1.0000 </r>
       <r>  -62.9724    1.0000 </r>
       <r>  -62.9561    1.0000 </r>
       <r>  -13.5034    1.0000 </r>
       <r>  -12.8144    1.0000 </r>
       <r>   -2.2995    1.0000 </r>
       <r>   -1.8657    1.0000 </r>
       <r>    0.3000    1.0000 </r>
       <r>    1.0183    1.0000 </r>
       <r>    1.9216    1.0000 </r>
       <r>    2.6293    1.0000 </r>
       <r>    3.1596    1.0000 </r>
       <r>    4.2687    1.0000 </r>
       <r>    4.5722    1.0000 </r>
       <r>    4.8343    1.0000 </r>
       <r>    5.7576    1.0000 </r>
       <r>    8.3227    0.0000 </r>
       <r>   11.9000    0.0000 </r>
       <r>   13.5679    0.0000 </r>
       <r>   16.8137    0.0000 </r>
       <r>   17.2927    0.0000 </r>
       <r>   18.2071    0.0000 </r>
       <r>   21.2448    0.0000 </r>
       <r>   21.6458    0.0000 </r>
       <r>   22.8933    0.0000 </r>
       <r>   25.2264    0.0000 </r>
       <r>   28.6184    0.0000 </r>
       <r>   28.8661    0.0000 </r>
       <r>   31.3677    0.0000 </r>
       <r>   31.4190    0.0000 </r>
       <r>   33.0107    0.0000 </r>
       <r>   32.9865    0.0000 </r>
       <r>   21.2386    0.0000 </r>
       <r>   35.7493    0.0000 </r>
       <r>   33.1245    0.0000 </r>
      </set>
      <set comment="kpoint 27">
       <r> -105.4652    1.0000 </r>
       <r>  -63.1592    1.0000 </r>
       <r>  -62.9724    1.0000 </r>
       <r>  -62.9562    1.0000 </r>
       <r>  -13.5034    1.0000 </r>
       <r>  -12.8145    1.0000 </r>
       <r>   -2.3002    1.0000 </r>
       <r>   -1.8661    1.0000 </r>
       <r>    0.2998    1.0000 </r>
       <r>    1.0209    1.0000 </r>
       <r>    1.9204    1.0000 </r>
       <r>    2.6315    1.0000 </r>
       <r>    3.1583    1.0000 </r>
       <r>    4.2686    1.0000 </r>
       <r>    4.5723    1.0000 </r>
       <r>    4.8351    1.0000 </r>
       <r>    5.7580    1.0000 </r>
       <r>    8.3211    0.0000 </r>
       <r>   11.8984    0.0000 </r>
       <r>   13.5654    0.0000 </r>
       <r>   16.8128    0.0000 </r>
       <r>   17.2929    0.0000 </r>
       <r>   18.2060    0.0000 </r>
       <r>   21.2647    0.0000 </r>
       <r>   21.6251    0.0000 </r>
       <r>   22.8876    0.0000 </r>
       <r>   25.4329    0.0000 </r>
       <r>   28.6267    0.0000 </r>
       <r>   28.8746    0.0000 </r>
       <r>   31.3518    0.0000 </r>
       <r>   31.4109    0.0000 </r>
       <r>   17.4156    0.0000 </r>
       <r>   31.5099    0.0000 </r>
       <r>   33.0520    0.0000 </r>
       <r>   21.2929    0.0000 </r>
       <r>   35.8908    0.0000 </r>
      </set>
      <set comment="kpoint 28">
       <r> -105.4652    1.0000 </r>
       <r>  -63.1592    1.0000 </r>
       <r>  -62.9724    1.0000 </r>
       <r>  -62.9562    1.0000 </r>
       <r>  -13.5052    1.0000 </r>
       <r>  -12.8142    1.0000 </r>
       <r>   -2.2993    1.0000 </r>
       <r>   -1.8660    1.0000 </r>
       <r>    0.2993    1.0000 </r>
       <r>    1.0250    1.0000 </r>
       <r>    1.9193    1.0000 </r>
       <r>    2.6349    1.0000 </r>
       <r>    3.1567    1.0000 </r>
       <r>    4.2687    1.0000 </r>
       <r>    4.5727    1.0000 </r>
       <r>    4.8356    1.0000 </r>
       <r>    5.7547    1.0000 </r>
       <r>    8.3200    0.0000 </r>
       <r>   11.9011    0.0000 </r>
       <r>   13.5631    0.0000 </r>
       <r>   16.8114    0.0000 </r>
       <r>   17.2921    0.0000 </r>
       <r>   18.2057    0.0000 </r>
       <r>   21.2976    0.0000 </r>
       <r>   21.5995    0.0000 </r>
       <r>   22.6969    0.0000 </r>
       <r>   25.7098    0.0000 </r>
       <r>   28.6216    0.0000 </r>
       <r>   28.8925    0.0000 </r>
       <r>   31.3379    0.0000 </r>
       <r>   31.4188    0.0000 </r>
       <r>   33.0094    0.0000 </r>
       <r>   33.0600    0.0000 </r>
       <r>   32.1000    0.0000 </r>
       <r>   25.7788    0.0000 </r>
       <r>   42.0046    0.0000 </r>
      </set>
      <set comment="kpoint 29">
       <r> -105.4652    1.0000 </r>
       <r>  -63.1591    1.0000 </r>
       <r>  -62.9724    1.0000 </r>
       <r>  -62.9562    1.0000 </r>
       <r>  -13.5070    1.0000 </r>
       <r>  -12.8138    1.0000 </r>
       <r>   -2.2977    1.0000 </r>
       <r>   -1.8654    1.0000 </r>
       <r>    0.2988    1.0000 </r>
       <r>    1.0265    1.0000 </r>
       <r>    1.9194    1.0000 </r>
       <r>    2.6361    1.0000 </r>
       <r>    3.1564    1.0000 </r>
       <r>    4.2689    1.0000 </r>
       <r>    4.5729    1.0000 </r>
       <r>    4.8354    1.0000 </r>
       <r>    5.7508    1.0000 </r>
       <r>    8.3206    0.0000 </r>
       <r>   11.9054    0.0000 </r>
       <r>   13.5631    0.0000 </r>
       <r>   16.8109    0.0000 </r>
       <r>   17.2912    0.0000 </r>
       <r>   18.2037    0.0000 </r>
       <r>   21.3073    0.0000 </r>
       <r>   21.5968    0.0000 </r>
       <r>   22.9112    0.0000 </r>
       <r>   25.7076    0.0000 </r>
       <r>   28.6089    0.0000 </r>
       <r>   28.9009    0.0000 </r>
       <r>   16.7727    0.0000 </r>
       <r>   31.4098    0.0000 </r>
       <r>   26.7313    0.0000 </r>
       <r>   33.0217    0.0000 </r>
       <r>   33.0610    0.0000 </r>
       <r>   23.2457    0.0000 </r>
       <r>   34.8818    0.0000 </r>
      </set>
      <set comment="kpoint 30">
       <r> -105.4652    1.0000 </r>
       <r>  -63.1591    1.0000 </r>
       <r>  -62.9724    1.0000 </r>
       <r>  -62.9561    1.0000 </r>
       <r>  -13.5052    1.0000 </r>
       <r>  -12.8141    1.0000 </r>
       <r>   -2.3005    1.0000 </r>
       <r>   -1.8651    1.0000 </r>
       <r>    0.2992    1.0000 </r>
       <r>    1.0259    1.0000 </r>
       <r>    1.9191    1.0000 </r>
       <r>    2.6341    1.0000 </r>
       <r>    3.1564    1.0000 </r>
       <r>    4.2686    1.0000 </r>
       <r>    4.5737    1.0000 </r>
       <r>    4.8358    1.0000 </r>
       <r>    5.7523    1.0000 </r>
       <r>    8.3250    0.0000 </r>
       <r>   11.8992    0.0000 </r>
       <r>   13.5632    0.0000 </r>
       <r>   16.8006    0.0000 </r>
       <r>   17.2951    0.0000 </r>
       <r>   18.2066    0.0000 </r>
       <r>   17.3021    0.0000 </r>
       <r>   19.5447    0.0000 </r>
       <r>   21.3064    0.0000 </r>
       <r>   21.5930    0.0000 </r>
       <r>   22.9162    0.0000 </r>
       <r>   25.7150    0.0000 </r>
       <r>   28.5725    0.0000 </r>
       <r>   28.9489    0.0000 </r>
       <r>   31.2482    0.0000 </r>
       <r>   31.4962    0.0000 </r>
       <r>   33.0376    0.0000 </r>
       <r>   33.5518    0.0000 </r>
       <r>   36.7526    0.0000 </r>
      </set>
      <set comment="kpoint 31">
       <r> -105.4652    1.0000 </r>
       <r>  -63.1591    1.0000 </r>
       <r>  -62.9724    1.0000 </r>
       <r>  -62.9561    1.0000 </r>
       <r>  -13.5041    1.0000 </r>
       <r>  -12.8146    1.0000 </r>
       <r>   -2.3016    1.0000 </r>
       <r>   -1.8655    1.0000 </r>
       <r>    0.2999    1.0000 </r>
       <r>    1.0265    1.0000 </r>
       <r>    1.9172    1.0000 </r>
       <r>    2.6345    1.0000 </r>
       <r>    3.1559    1.0000 </r>
       <r>    4.2686    1.0000 </r>
       <r>    4.5738    1.0000 </r>
       <r>    4.8363    1.0000 </r>
       <r>    5.7557    1.0000 </r>
       <r>    8.3215    0.0000 </r>
       <r>   11.8979    0.0000 </r>
       <r>   13.5617    0.0000 </r>
       <r>   16.8017    0.0000 </r>
       <r>   17.2957    0.0000 </r>
       <r>   18.2084    0.0000 </r>
       <r>   21.2924    0.0000 </r>
       <r>   21.5435    0.0000 </r>
       <r>   19.3195    0.0000 </r>
       <r>   22.9160    0.0000 </r>
       <r>   25.5750    0.0000 </r>
       <r>   28.5923    0.0000 </r>
       <r>   28.9399    0.0000 </r>
       <r>   31.2389    0.0000 </r>
       <r>   31.4511    0.0000 </r>
       <r>   33.0140    0.0000 </r>
       <r>   32.0019    0.0000 </r>
       <r>   35.7238    0.0000 </r>
       <r>   23.2679    0.0000 </r>
      </set>
      <set comment="kpoint 32">
       <r> -105.4652    1.0000 </r>
       <r>  -63.1592    1.0000 </r>
       <r>  -62.9724    1.0000 </r>
       <r>  -62.9562    1.0000 </r>
       <r>  -13.5037    1.0000 </r>
       <r>  -12.8151    1.0000 </r>
       <r>   -2.3014    1.0000 </r>
       <r>   -1.8652    1.0000 </r>
       <r>    0.3010    1.0000 </r>
       <r>    1.0265    1.0000 </r>
       <r>    1.9147    1.0000 </r>
       <r>    2.6344    1.0000 </r>
       <r>    3.1559    1.0000 </r>
       <r>    4.2690    1.0000 </r>
       <r>    4.5738    1.0000 </r>
       <r>    4.8363    1.0000 </r>
       <r>    5.7583    1.0000 </r>
       <r>    8.3170    0.0000 </r>
       <r>   11.9012    0.0000 </r>
       <r>   13.5614    0.0000 </r>
       <r>   16.8042    0.0000 </r>
       <r>   17.2960    0.0000 </r>
       <r>   18.2056    0.0000 </r>
       <r>   21.3142    0.0000 </r>
       <r>   21.5841    0.0000 </r>
       <r>   22.9070    0.0000 </r>
       <r>   25.4852    0.0000 </r>
       <r>   28.6153    0.0000 </r>
       <r>   28.9168    0.0000 </r>
       <r>   16.3125    0.0000 </r>
       <r>   30.6941    0.0000 </r>
       <r>   31.5235    0.0000 </r>
       <r>   33.0054    0.0000 </r>
       <r>   33.0308    0.0000 </r>
       <r>   35.7085    0.0000 </r>
       <r>   26.0475    0.0000 </r>
      </set>
      <set comment="kpoint 33">
       <r> -105.4652    1.0000 </r>
       <r>  -63.1591    1.0000 </r>
       <r>  -62.9724    1.0000 </r>
       <r>  -62.9561    1.0000 </r>
       <r>  -13.5044    1.0000 </r>
       <r>  -12.8151    1.0000 </r>
       <r>   -2.3002    1.0000 </r>
       <r>   -1.8645    1.0000 </r>
       <r>    0.3014    1.0000 </r>
       <r>    1.0260    1.0000 </r>
       <r>    1.9142    1.0000 </r>
       <r>    2.6338    1.0000 </r>
       <r>    3.1564    1.0000 </r>
       <r>    4.2693    1.0000 </r>
       <r>    4.5739    1.0000 </r>
       <r>    4.8358    1.0000 </r>
       <r>    5.7574    1.0000 </r>
       <r>    8.3159    0.0000 </r>
       <r>   11.9058    0.0000 </r>
       <r>   13.5625    0.0000 </r>
       <r>   16.8057    0.0000 </r>
       <r>   17.2957    0.0000 </r>
       <r>   18.2023    0.0000 </r>
       <r>   21.2772    0.0000 </r>
       <r>   21.6141    0.0000 </r>
       <r>   22.8798    0.0000 </r>
       <r>   25.7130    0.0000 </r>
       <r>   28.6179    0.0000 </r>
       <r>   28.9037    0.0000 </r>
       <r>   31.2167    0.0000 </r>
       <r>   31.5371    0.0000 </r>
       <r>   19.5409    0.0000 </r>
       <r>   33.0061    0.0000 </r>
       <r>   33.0556    0.0000 </r>
       <r>   36.3863    0.0000 </r>
       <r>   30.1663    0.0000 </r>
      </set>
      <set comment="kpoint 34">
       <r> -105.4652    1.0000 </r>
       <r>  -63.1591    1.0000 </r>
       <r>  -62.9724    1.0000 </r>
       <r>  -62.9562    1.0000 </r>
       <r>  -13.5052    1.0000 </r>
       <r>  -12.8141    1.0000 </r>
       <r>   -2.2999    1.0000 </r>
       <r>   -1.8660    1.0000 </r>
       <r>    0.2990    1.0000 </r>
       <r>    1.0256    1.0000 </r>
       <r>    1.9197    1.0000 </r>
       <r>    2.6350    1.0000 </r>
       <r>    3.1564    1.0000 </r>
       <r>    4.2685    1.0000 </r>
       <r>    4.5729    1.0000 </r>
       <r>    4.8358    1.0000 </r>
       <r>    5.7538    1.0000 </r>
       <r>    8.3220    0.0000 </r>
       <r>   11.8992    0.0000 </r>
       <r>   13.5627    0.0000 </r>
       <r>   16.8079    0.0000 </r>
       <r>   17.2929    0.0000 </r>
       <r>   18.2076    0.0000 </r>
       <r>   18.6855    0.0000 </r>
       <r>   21.5904    0.0000 </r>
       <r>   15.3567    0.0000 </r>
       <r>   22.9133    0.0000 </r>
       <r>   25.7103    0.0000 </r>
       <r>   28.6038    0.0000 </r>
       <r>   28.9155    0.0000 </r>
       <r>   31.3135    0.0000 </r>
       <r>   31.4379    0.0000 </r>
       <r>   27.3211    0.0000 </r>
       <r>   33.0643    0.0000 </r>
       <r>   33.6635    0.0000 </r>
       <r>   36.0174    0.0000 </r>
      </set>
      <set comment="kpoint 35">
       <r> -105.4652    1.0000 </r>
       <r>  -63.1592    1.0000 </r>
       <r>  -62.9724    1.0000 </r>
       <r>  -62.9562    1.0000 </r>
       <r>  -13.5042    1.0000 </r>
       <r>  -12.8144    1.0000 </r>
       <r>   -2.3010    1.0000 </r>
       <r>   -1.8664    1.0000 </r>
       <r>    0.2994    1.0000 </r>
       <r>    1.0261    1.0000 </r>
       <r>    1.9184    1.0000 </r>
       <r>    2.6355    1.0000 </r>
       <r>    3.1559    1.0000 </r>
       <r>    4.2684    1.0000 </r>
       <r>    4.5730    1.0000 </r>
       <r>    4.8363    1.0000 </r>
       <r>    5.7566    1.0000 </r>
       <r>    8.3197    0.0000 </r>
       <r>   11.8971    0.0000 </r>
       <r>   13.5614    0.0000 </r>
       <r>   16.8084    0.0000 </r>
       <r>   17.2934    0.0000 </r>
       <r>   18.2092    0.0000 </r>
       <r>   21.5761    0.0000 </r>
       <r>   20.7730    0.0000 </r>
       <r>   22.9137    0.0000 </r>
       <r>   25.7040    0.0000 </r>
       <r>   28.6202    0.0000 </r>
       <r>   28.9098    0.0000 </r>
       <r>   23.0842    0.0000 </r>
       <r>   28.8821    0.0000 </r>
       <r>   29.9695    0.0000 </r>
       <r>   32.9825    0.0000 </r>
       <r>   33.0459    0.0000 </r>
       <r>   35.9666    0.0000 </r>
       <r>   25.1026    0.0000 </r>
      </set>
      <set comment="kpoint 36">
       <r> -105.4652    1.0000 </r>
       <r>  -63.1592    1.0000 </r>
       <r>  -62.9724    1.0000 </r>
       <r>  -62.9562    1.0000 </r>
       <r>  -13.5040    1.0000 </r>
       <r>  -12.8147    1.0000 </r>
       <r>   -2.3009    1.0000 </r>
       <r>   -1.8662    1.0000 </r>
       <r>    0.2999    1.0000 </r>
       <r>    1.0262    1.0000 </r>
       <r>    1.9171    1.0000 </r>
       <r>    2.6354    1.0000 </r>
       <r>    3.1559    1.0000 </r>
       <r>    4.2686    1.0000 </r>
[...]
       <r>  -12.8150    1.0000 </r>
       <r>   -2.3016    1.0000 </r>
       <r>   -1.8652    1.0000 </r>
       <r>    0.3009    1.0000 </r>
       <r>    1.0259    1.0000 </r>
       <r>    1.9154    1.0000 </r>
       <r>    2.6339    1.0000 </r>
       <r>    3.1561    1.0000 </r>
       <r>    4.2689    1.0000 </r>
       <r>    4.5738    1.0000 </r>
       <r>    4.8362    1.0000 </r>
       <r>    5.7582    1.0000 </r>
       <r>    8.3181    0.0000 </r>
       <r>   11.9001    0.0000 </r>
       <r>   13.5618    0.0000 </r>
       <r>   16.8039    0.0000 </r>
       <r>   17.2961    0.0000 </r>
       <r>   18.2062    0.0000 </r>
       <r>   20.1108    0.0000 </r>
       <r>   21.5990    0.0000 </r>
       <r>   20.5406    0.0000 </r>
       <r>   22.9157    0.0000 </r>
       <r>   25.7128    0.0000 </r>
       <r>   28.6109    0.0000 </r>
       <r>   28.9197    0.0000 </r>
       <r>   31.2286    0.0000 </r>
       <r>   33.0075    0.0000 </r>
       <r>   33.0702    0.0000 </r>
       <r>   32.7030    0.0000 </r>
       <r>   35.0097    0.0000 </r>
       <r>   30.0068    0.0000 </r>
      </set>
      <set comment="kpoint 60">
       <r> -105.4652    1.0000 </r>
       <r>  -63.1591    1.0000 </r>
       <r>  -62.9724    1.0000 </r>
       <r>  -62.9561    1.0000 </r>
       <r>  -13.5037    1.0000 </r>
       <r>  -12.8147    1.0000 </r>
       <r>   -2.3017    1.0000 </r>
       <r>   -1.8654    1.0000 </r>
       <r>    0.3002    1.0000 </r>
       <r>    1.0259    1.0000 </r>
       <r>    1.9169    1.0000 </r>
       <r>    2.6340    1.0000 </r>
       <r>    3.1561    1.0000 </r>
       <r>    4.2686    1.0000 </r>
       <r>    4.5737    1.0000 </r>
       <r>    4.8362    1.0000 </r>
       <r>    5.7567    1.0000 </r>
       <r>    8.3207    0.0000 </r>
       <r>   11.8982    0.0000 </r>
       <r>   13.5620    0.0000 </r>
       <r>   16.8024    0.0000 </r>
       <r>   17.2959    0.0000 </r>
       <r>   18.2070    0.0000 </r>
       <r>   21.3003    0.0000 </r>
       <r>   21.5925    0.0000 </r>
       <r>   22.9158    0.0000 </r>
       <r>   25.7132    0.0000 </r>
       <r>   28.5972    0.0000 </r>
       <r>   24.1278    0.0000 </r>
       <r>   28.9331    0.0000 </r>
       <r>   28.7961    0.0000 </r>
       <r>   31.1996    0.0000 </r>
       <r>   28.7858    0.0000 </r>
       <r>   33.1235    0.0000 </r>
       <r>   35.7302    0.0000 </r>
       <r>   30.3871    0.0000 </r>
      </set>
      <set comment="kpoint 61">
       <r> -105.4652    1.0000 </r>
       <r>  -63.1591    1.0000 </r>
       <r>  -62.9724    1.0000 </r>
       <r>  -62.9561    1.0000 </r>
       <r>  -13.5040    1.0000 </r>
       <r>  -12.8145    1.0000 </r>
       <r>   -2.3009    1.0000 </r>
       <r>   -1.8651    1.0000 </r>
       <r>    0.3000    1.0000 </r>
       <r>    1.0236    1.0000 </r>
       <r>    1.9187    1.0000 </r>
       <r>    2.6321    1.0000 </r>
       <r>    3.1574    1.0000 </r>
       <r>    4.2687    1.0000 </r>
       <r>    4.5735    1.0000 </r>
       <r>    4.8355    1.0000 </r>
       <r>    5.7553    1.0000 </r>
       <r>    8.3237    0.0000 </r>
       <r>   11.8990    0.0000 </r>
       <r>   13.5644    0.0000 </r>
       <r>   16.8025    0.0000 </r>
       <r>   17.2956    0.0000 </r>
       <r>   18.2070    0.0000 </r>
       <r>   21.2866    0.0000 </r>
       <r>   21.6133    0.0000 </r>
       <r>   19.7828    0.0000 </r>
       <r>   22.9099    0.0000 </r>
       <r>   25.7171    0.0000 </r>
       <r>   28.5823    0.0000 </r>
       <r>   28.9256    0.0000 </r>
       <r>   16.1274    0.0000 </r>
       <r>   31.5092    0.0000 </r>
       <r>   33.0177    0.0000 </r>
       <r>   33.0643    0.0000 </r>
       <r>   35.8224    0.0000 </r>
       <r>   30.2236    0.0000 </r>
      </set>
     </set>
    </set>
   </array>
  </eigenvalues>
  <separator name="orbital magnetization" >
   <v name="MAGDIPOLOUT">      0.00000000      0.00000000      0.00000000</v>
  </separator>
  <dos>
   <i name="efermi">      6.79613867 </i>
   <total>
    <array>
     <dimension dim="1">gridpoints</dimension>
     <dimension dim="2">spin</dimension>
     <field>energy</field>
     <field>total</field>
     <field>integrated</field>
     <set>
      <set comment="spin 1">
       <r>  -112.8387     0.0000     0.0000 </r>
       <r>  -112.2980     0.0000     0.0000 </r>
       <r>  -111.7573     0.0000     0.0000 </r>
       <r>  -111.2166     0.0000     0.0000 </r>
       <r>  -110.6758     0.0000     0.0000 </r>
       <r>  -110.1351     0.0000     0.0000 </r>
       <r>  -109.5944     0.0000     0.0000 </r>
       <r>  -109.0537     0.0000     0.0000 </r>
       <r>  -108.5130     0.0000     0.0000 </r>
       <r>  -107.9722     0.0000     0.0000 </r>
       <r>  -107.4315     0.0000     0.0000 </r>
       <r>  -106.8908     0.0000     0.0000 </r>
       <r>  -106.3501     0.0000     0.0000 </r>
       <r>  -105.8093     0.0277     0.0150 </r>
       <r>  -105.2686     3.3670     1.8356 </r>
       <r>  -104.7279     0.3041     2.0000 </r>
       <r>  -104.1872     0.0000     2.0000 </r>
       <r>  -103.6465     0.0000     2.0000 </r>
       <r>  -103.1057     0.0000     2.0000 </r>
       <r>  -102.5650     0.0000     2.0000 </r>
       <r>  -102.0243     0.0000     2.0000 </r>
       <r>  -101.4836     0.0000     2.0000 </r>
       <r>  -100.9428     0.0000     2.0000 </r>
       <r>  -100.4021     0.0000     2.0000 </r>
       <r>   -99.8614     0.0000     2.0000 </r>
       <r>   -99.3207     0.0000     2.0000 </r>
       <r>   -98.7799     0.0000     2.0000 </r>
       <r>   -98.2392     0.0000     2.0000 </r>
       <r>   -97.6985     0.0000     2.0000 </r>
       <r>   -97.1578     0.0000     2.0000 </r>
       <r>   -96.6171     0.0000     2.0000 </r>
       <r>   -96.0763     0.0000     2.0000 </r>
       <r>   -95.5356     0.0000     2.0000 </r>
       <r>   -94.9949     0.0000     2.0000 </r>
       <r>   -94.4542     0.0000     2.0000 </r>
       <r>   -93.9134     0.0000     2.0000 </r>
       <r>   -93.3727     0.0000     2.0000 </r>
       <r>   -92.8320     0.0000     2.0000 </r>
       <r>   -92.2913     0.0000     2.0000 </r>
       <r>   -91.7506     0.0000     2.0000 </r>
       <r>   -91.2098     0.0000     2.0000 </r>
       <r>   -90.6691     0.0000     2.0000 </r>
       <r>   -90.1284     0.0000     2.0000 </r>
       <r>   -89.5877     0.0000     2.0000 </r>
       <r>   -89.0469     0.0000     2.0000 </r>
       <r>   -88.5062     0.0000     2.0000 </r>
       <r>   -87.9655     0.0000     2.0000 </r>
       <r>   -87.4248     0.0000     2.0000 </r>
       <r>   -86.8841     0.0000     2.0000 </r>
       <r>   -86.3433     0.0000     2.0000 </r>
       <r>   -85.8026     0.0000     2.0000 </r>
       <r>   -85.2619     0.0000     2.0000 </r>
       <r>   -84.7212     0.0000     2.0000 </r>
       <r>   -84.1804     0.0000     2.0000 </r>
       <r>   -83.6397     0.0000     2.0000 </r>
       <r>   -83.0990     0.0000     2.0000 </r>
       <r>   -82.5583     0.0000     2.0000 </r>
       <r>   -82.0175     0.0000     2.0000 </r>
       <r>   -81.4768     0.0000     2.0000 </r>
       <r>   -80.9361     0.0000     2.0000 </r>
       <r>   -80.3954     0.0000     2.0000 </r>
       <r>   -79.8547     0.0000     2.0000 </r>
       <r>   -79.3139     0.0000     2.0000 </r>
       <r>   -78.7732     0.0000     2.0000 </r>
       <r>   -78.2325     0.0000     2.0000 </r>
       <r>   -77.6918     0.0000     2.0000 </r>
       <r>   -77.1510     0.0000     2.0000 </r>
       <r>   -76.6103     0.0000     2.0000 </r>
       <r>   -76.0696     0.0000     2.0000 </r>
       <r>   -75.5289     0.0000     2.0000 </r>
       <r>   -74.9882     0.0000     2.0000 </r>
       <r>   -74.4474     0.0000     2.0000 </r>
       <r>   -73.9067     0.0000     2.0000 </r>
       <r>   -73.3660     0.0000     2.0000 </r>
       <r>   -72.8253     0.0000     2.0000 </r>
       <r>   -72.2845     0.0000     2.0000 </r>
       <r>   -71.7438     0.0000     2.0000 </r>
       <r>   -71.2031     0.0000     2.0000 </r>
       <r>   -70.6624     0.0000     2.0000 </r>
       <r>   -70.1217     0.0000     2.0000 </r>
       <r>   -69.5809     0.0000     2.0000 </r>
       <r>   -69.0402     0.0000     2.0000 </r>
       <r>   -68.4995     0.0000     2.0000 </r>
       <r>   -67.9588     0.0000     2.0000 </r>
       <r>   -67.4180     0.0000     2.0000 </r>
       <r>   -66.8773     0.0000     2.0000 </r>
       <r>   -66.3366     0.0000     2.0000 </r>
       <r>   -65.7959     0.0000     2.0000 </r>
       <r>   -65.2551     0.0000     2.0000 </r>
       <r>   -64.7144     0.0000     2.0000 </r>
       <r>   -64.1737     0.0000     2.0000 </r>
       <r>   -63.6330     0.0015     2.0008 </r>
       <r>   -63.0923     3.8756     4.0964 </r>
       <r>   -62.5515     7.2059     7.9928 </r>
       <r>   -62.0108     0.0132     8.0000 </r>
       <r>   -61.4701     0.0000     8.0000 </r>
       <r>   -60.9294     0.0000     8.0000 </r>
       <r>   -60.3886     0.0000     8.0000 </r>
       <r>   -59.8479     0.0000     8.0000 </r>
       <r>   -59.3072     0.0000     8.0000 </r>
       <r>   -58.7665     0.0000     8.0000 </r>
       <r>   -58.2258     0.0000     8.0000 </r>
       <r>   -57.6850     0.0000     8.0000 </r>
       <r>   -57.1443     0.0000     8.0000 </r>
       <r>   -56.6036     0.0000     8.0000 </r>
       <r>   -56.0629     0.0000     8.0000 </r>
       <r>   -55.5221     0.0000     8.0000 </r>
       <r>   -54.9814     0.0000     8.0000 </r>
       <r>   -54.4407     0.0000     8.0000 </r>
       <r>   -53.9000     0.0000     8.0000 </r>
       <r>   -53.3592     0.0000     8.0000 </r>
       <r>   -52.8185     0.0000     8.0000 </r>
       <r>   -52.2778     0.0000     8.0000 </r>
       <r>   -51.7371     0.0000     8.0000 </r>
       <r>   -51.1964     0.0000     8.0000 </r>
       <r>   -50.6556     0.0000     8.0000 </r>
       <r>   -50.1149     0.0000     8.0000 </r>
       <r>   -49.5742     0.0000     8.0000 </r>
       <r>   -49.0335     0.0000     8.0000 </r>
       <r>   -48.4927     0.0000     8.0000 </r>
       <r>   -47.9520     0.0000     8.0000 </r>
       <r>   -47.4113     0.0000     8.0000 </r>
       <r>   -46.8706     0.0000     8.0000 </r>
       <r>   -46.3299     0.0000     8.0000 </r>
       <r>   -45.7891     0.0000     8.0000 </r>
       <r>   -45.2484     0.0000     8.0000 </r>
       <r>   -44.7077     0.0000     8.0000 </r>
       <r>   -44.1670     0.0000     8.0000 </r>
       <r>   -43.6262     0.0000     8.0000 </r>
       <r>   -43.0855     0.0000     8.0000 </r>
       <r>   -42.5448     0.0000     8.0000 </r>
       <r>   -42.0041     0.0000     8.0000 </r>
       <r>   -41.4634     0.0000     8.0000 </r>
       <r>   -40.9226     0.0000     8.0000 </r>
       <r>   -40.3819     0.0000     8.0000 </r>
       <r>   -39.8412     0.0000     8.0000 </r>
       <r>   -39.3005     0.0000     8.0000 </r>
       <r>   -38.7597     0.0000     8.0000 </r>
       <r>   -38.2190     0.0000     8.0000 </r>
       <r>   -37.6783     0.0000     8.0000 </r>
       <r>   -37.1376     0.0000     8.0000 </r>
       <r>   -36.5968     0.0000     8.0000 </r>
       <r>   -36.0561     0.0000     8.0000 </r>
       <r>   -35.5154     0.0000     8.0000 </r>
       <r>   -34.9747     0.0000     8.0000 </r>
       <r>   -34.4340     0.0000     8.0000 </r>
       <r>   -33.8932     0.0000     8.0000 </r>
       <r>   -33.3525     0.0000     8.0000 </r>
       <r>   -32.8118     0.0000     8.0000 </r>
       <r>   -32.2711     0.0000     8.0000 </r>
       <r>   -31.7303     0.0000     8.0000 </r>
       <r>   -31.1896     0.0000     8.0000 </r>
       <r>   -30.6489     0.0000     8.0000 </r>
       <r>   -30.1082     0.0000     8.0000 </r>
       <r>   -29.5675     0.0000     8.0000 </r>
       <r>   -29.0267     0.0000     8.0000 </r>
       <r>   -28.4860     0.0000     8.0000 </r>
       <r>   -27.9453     0.0000     8.0000 </r>
       <r>   -27.4046     0.0000     8.0000 </r>
       <r>   -26.8638     0.0000     8.0000 </r>
       <r>   -26.3231     0.0000     8.0000 </r>
       <r>   -25.7824     0.0000     8.0000 </r>
       <r>   -25.2417     0.0000     8.0000 </r>
       <r>   -24.7010     0.0000     8.0000 </r>
       <r>   -24.1602     0.0000     8.0000 </r>
       <r>   -23.6195     0.0000     8.0000 </r>
       <r>   -23.0788     0.0000     8.0000 </r>
       <r>   -22.5381     0.0000     8.0000 </r>
       <r>   -21.9973     0.0000     8.0000 </r>
       <r>   -21.4566     0.0000     8.0000 </r>
       <r>   -20.9159     0.0000     8.0000 </r>
       <r>   -20.3752     0.0000     8.0000 </r>
       <r>   -19.8344     0.0000     8.0000 </r>
       <r>   -19.2937     0.0000     8.0000 </r>
       <r>   -18.7530     0.0000     8.0000 </r>
       <r>   -18.2123     0.0000     8.0000 </r>
       <r>   -17.6716     0.0000     8.0000 </r>
       <r>   -17.1308     0.0000     8.0000 </r>
       <r>   -16.5901     0.0000     8.0000 </r>
       <r>   -16.0494     0.0000     8.0000 </r>
       <r>   -15.5087     0.0000     8.0000 </r>
       <r>   -14.9679     0.0000     8.0000 </r>
       <r>   -14.4272     0.0000     8.0000 </r>
       <r>   -13.8865     0.0127     8.0069 </r>
       <r>   -13.3458     3.2009     9.7377 </r>
       <r>   -12.8051     2.4330    11.0533 </r>
       <r>   -12.2643     1.7507    11.9999 </r>
       <r>   -11.7236     0.0002    12.0000 </r>
       <r>   -11.1829     0.0000    12.0000 </r>
       <r>   -10.6422     0.0000    12.0000 </r>
       <r>   -10.1014     0.0000    12.0000 </r>
       <r>    -9.5607     0.0000    12.0000 </r>
       <r>    -9.0200     0.0000    12.0000 </r>
       <r>    -8.4793     0.0000    12.0000 </r>
       <r>    -7.9386     0.0000    12.0000 </r>
       <r>    -7.3978     0.0000    12.0000 </r>
       <r>    -6.8571     0.0000    12.0000 </r>
       <r>    -6.3164     0.0000    12.0000 </r>
       <r>    -5.7757     0.0000    12.0000 </r>
       <r>    -5.2349     0.0000    12.0000 </r>
       <r>    -4.6942     0.0000    12.0000 </r>
       <r>    -4.1535     0.0000    12.0000 </r>
       <r>    -3.6128     0.0000    12.0000 </r>
       <r>    -3.0720     0.0000    12.0000 </r>
       <r>    -2.5313     0.1897    12.1026 </r>
       <r>    -1.9906     4.1549    14.3492 </r>
       <r>    -1.4499     3.0469    15.9967 </r>
       <r>    -0.9092     0.0060    16.0000 </r>
       <r>    -0.3684     0.0000    16.0000 </r>
       <r>     0.1723     0.6790    16.3672 </r>
       <r>     0.7130     3.0639    18.0239 </r>
       <r>     1.2537     3.4589    19.8942 </r>
       <r>     1.7945     0.9018    20.3818 </r>
       <r>     2.3352     3.0504    22.0313 </r>
       <r>     2.8759     3.5663    23.9597 </r>
       <r>     3.4166     3.6514    25.9341 </r>
       <r>     3.9573     0.1732    26.0277 </r>
       <r>     4.4981     4.5872    28.5081 </r>
       <r>     5.0388     6.1761    31.8477 </r>
       <r>     5.5795     0.6715    32.2108 </r>
       <r>     6.1202     3.2902    33.9899 </r>
       <r>     6.6610     0.0187    34.0000 </r>
       <r>     7.2017     0.0000    34.0000 </r>
       <r>     7.7424     0.0001    34.0000 </r>
       <r>     8.2831     1.4721    34.7960 </r>
       <r>     8.8238     2.2259    35.9996 </r>
       <r>     9.3646     0.0007    36.0000 </r>
       <r>     9.9053     0.0000    36.0000 </r>
       <r>    10.4460     0.0000    36.0000 </r>
       <r>    10.9867     0.0000    36.0000 </r>
       <r>    11.5275     0.0171    36.0093 </r>
       <r>    12.0682     3.3093    37.7987 </r>
       <r>    12.6089     0.4875    38.0623 </r>
       <r>    13.1496     0.0749    38.1028 </r>
       <r>    13.6904     3.0720    39.7639 </r>
       <r>    14.2311     0.6872    40.1355 </r>
       <r>    14.7718     0.0734    40.1752 </r>
       <r>    15.3125     0.0950    40.2265 </r>
       <r>    15.8532     0.1356    40.2998 </r>
       <r>    16.3940     0.3982    40.5151 </r>
       <r>    16.9347     3.3382    42.3202 </r>
       <r>    17.4754     4.1917    44.5867 </r>
       <r>    18.0161     0.7728    45.0045 </r>
       <r>    18.5569     3.5371    46.9171 </r>
       <r>    19.0976     0.3823    47.1239 </r>
       <r>    19.6383     0.3862    47.3327 </r>
       <r>    20.1790     0.6476    47.6829 </r>
       <r>    20.7197     0.6263    48.0215 </r>
       <r>    21.2605     1.8085    48.9994 </r>
       <r>    21.8012     5.2026    51.8126 </r>
       <r>    22.3419     0.6581    52.1684 </r>
       <r>    22.8826     1.9980    53.2488 </r>
       <r>    23.4234     2.3270    54.5070 </r>
       <r>    23.9641     0.4235    54.7360 </r>
       <r>    24.5048     0.2885    54.8920 </r>
       <r>    25.0455     0.3270    55.0688 </r>
       <r>    25.5862     1.3024    55.7731 </r>
       <r>    26.1270     2.2777    57.0047 </r>
       <r>    26.6677     0.1144    57.0666 </r>
       <r>    27.2084     0.2090    57.1796 </r>
       <r>    27.7491     0.1950    57.2850 </r>
       <r>    28.2899     0.2808    57.4368 </r>
       <r>    28.8306     4.6216    59.9359 </r>
       <r>    29.3713     3.0070    61.5618 </r>
       <r>    29.9120     0.4562    61.8085 </r>
       <r>    30.4528     0.5494    62.1056 </r>
       <r>    30.9935     0.5672    62.4123 </r>
       <r>    31.5342     4.9860    65.1084 </r>
       <r>    32.0749     1.3275    65.8262 </r>
       <r>    32.6156     0.5134    66.1038 </r>
       <r>    33.1564     4.3455    68.4535 </r>
       <r>    33.6971     1.4757    69.2515 </r>
       <r>    34.2378     0.7741    69.6701 </r>
       <r>    34.7785     0.2811    69.8221 </r>
       <r>    35.3193     0.3090    69.9891 </r>
       <r>    35.8600     1.7313    70.9253 </r>
       <r>    36.4007     1.2427    71.5972 </r>
       <r>    36.9414     0.2770    71.7470 </r>
       <r>    37.4821     0.1027    71.8025 </r>
       <r>    38.0229     0.0580    71.8338 </r>
       <r>    38.5636     0.0147    71.8418 </r>
       <r>    39.1043     0.0531    71.8705 </r>
       <r>    39.6450     0.0568    71.9012 </r>
       <r>    40.1858     0.0009    71.9017 </r>
       <r>    40.7265     0.0447    71.9258 </r>
       <r>    41.2672     0.0760    71.9669 </r>
       <r>    41.8079     0.0055    71.9699 </r>
       <r>    42.3486     0.0552    71.9998 </r>
       <r>    42.8894     0.0005    72.0000 </r>
       <r>    43.4301     0.0000    72.0000 </r>
       <r>    43.9708     0.0000    72.0000 </r>
       <r>    44.5115     0.0000    72.0000 </r>
       <r>    45.0523     0.0000    72.0000 </r>
       <r>    45.5930     0.0000    72.0000 </r>
       <r>    46.1337     0.0000    72.0000 </r>
       <r>    46.6744     0.0000    72.0000 </r>
       <r>    47.2152     0.0000    72.0000 </r>
       <r>    47.7559     0.0000    72.0000 </r>
       <r>    48.2966     0.0000    72.0000 </r>
       <r>    48.8373     0.0000    72.0000 </r>
       <r>    49.3780     0.0000    72.0000 </r>
      </set>
     </set>
    </array>
   </total>
  </dos>
 </calculation>
 <structure name="finalpos" >
  <crystal>
   <varray name="basis" >
    <v>       1.42005454       0.81986888       5.62827908 </v>
    <v>      -1.42005454       0.81986888       5.62827908 </v>
    <v>       0.00000000      -1.63973774       5.62827908 </v>
   </varray>
   <i name="volume">     39.31663112 </i>
   <varray name="rec_basis" >
    <v>       0.35209915       0.20328454       0.05922473 </v>
    <v>      -0.35209915       0.20328454       0.05922473 </v>
    <v>      -0.00000000      -0.40656908       0.05922473 </v>
   </varray>
  </crystal>
  <varray name="positions" >
   <v>       0.00000000       0.00000000       0.00000000 </v>
   <v>       0.50000000       0.50000000       0.50000000 </v>
   <v>       0.10956395       0.10956395       0.10956395 </v>
   <v>       0.89043605       0.89043605       0.89043605 </v>
  </varray>
 </structure>
</modeling>
