
:LABEL1: Calculations in /home/stevezhang/work/CuMO2/convergence/CuAlO2/rkmax_7-scfk_6c/CuAlO2
:LABEL2: on MZ at Mon Jun 21 18:48:44 CST 2021
:LABEL3: using WIEN2k_14.2 (Release 15/10/2014) in /home/stevezhang/wien2k/v14.2
:LABEL4: using the command: run_lapw -ec 0.000000001


            ---------
:ITE001:  1. ITERATION
            ---------

:NATO :    3 INDEPENDENT AND    4 TOTAL ATOMS IN UNITCELL
       SUBSTANCE: CuAlO2 BenkoF84                                             

       LATTICE                      = R   
:POT  : POTENTIAL OPTION EX_PBE EC_PBE VX_PBE VC_PBE
:LAT  : LATTICE CONSTANTS=  5.40508  5.40508 32.03482
:VOL  : UNIT CELL VOLUME =     270.16967
       MODE OF CALCULATION IS       = RELA
       NON-SPINPOLARIZED CALCULATION
:IFFT  : FFT-parameters:   90   90   90 Factor: 2.00
       ATOMNUMBER=  1 Cu1        VCOUL-ZERO =  0.40717E+00
:EFG001:                        EFG         =     0.13808   *10**21  V / m**2
                               V20  TOT/SRF=     0.11958     0.33259
                               V22  TOT/SRF=     0.00000     0.00000
                               V22M TOT/SRF=     0.00000     0.00000
                               V21  TOT/SRF=     0.00000     0.00000
                               V21M TOT/SRF=     0.00000     0.00000

             -0.06904    0.00000    0.00000       -0.06904    0.00000    0.00000
              0.00000   -0.06904    0.00000        0.00000   -0.06904    0.00000
              0.00000    0.00000    0.13808        0.00000    0.00000    0.13808

         MAIN DIRECTIONS OF THE EFG   1.0000  0.0000  0.0000
                                      0.0000  1.0000  0.0000
                                      0.0000  0.0000  1.0000
:ANG001:  ANGLE WITH OLD X-AXIS =         0.0

:ETA001:                         ASYMM. ETA =     0.00000


       ATOMNUMBER=  2 Al1        VCOUL-ZERO = -0.82618E-01
:EFG002:                        EFG         =    -0.14362   *10**21  V / m**2
                               V20  TOT/SRF=    -0.12438    -0.19646
                               V22  TOT/SRF=     0.00000     0.00000
                               V22M TOT/SRF=     0.00000     0.00000
                               V21  TOT/SRF=     0.00000     0.00000
                               V21M TOT/SRF=     0.00000     0.00000

              0.07181    0.00000    0.00000        0.07181    0.00000    0.00000
              0.00000    0.07181    0.00000        0.00000    0.07181    0.00000
              0.00000    0.00000   -0.14362        0.00000    0.00000   -0.14362

         MAIN DIRECTIONS OF THE EFG   1.0000  0.0000  0.0000
                                      0.0000  1.0000  0.0000
                                      0.0000  0.0000  1.0000
:ANG002:  ANGLE WITH OLD X-AXIS =         0.0

:ETA002:                         ASYMM. ETA =     0.00000


       ATOMNUMBER=  3 O 1        VCOUL-ZERO =  0.17148E-01
:EFG003:                        EFG         =     0.24211   *10**21  V / m**2
                               V20  TOT/SRF=     0.20967     0.27373
                               V22  TOT/SRF=     0.00000     0.00000
                               V22M TOT/SRF=     0.00000     0.00000
                               V21  TOT/SRF=     0.00000     0.00000
                               V21M TOT/SRF=     0.00000     0.00000

             -0.12105    0.00000    0.00000       -0.12105    0.00000    0.00000
              0.00000   -0.12105    0.00000        0.00000   -0.12105    0.00000
              0.00000    0.00000    0.24211        0.00000    0.00000    0.24211

         MAIN DIRECTIONS OF THE EFG   1.0000  0.0000  0.0000
                                      0.0000  1.0000  0.0000
                                      0.0000  0.0000  1.0000
:ANG003:  ANGLE WITH OLD X-AXIS =         0.0

:ETA003:                         ASYMM. ETA =     0.00000


     HELLMANN-FEYNMAN-FORCE IN mRy/a.u. = |F|  Fx       Fy             Fz
:FHF001:   1.ATOM      0.000000000      0.000000000      0.000000000      0.000000000

     HELLMANN-FEYNMAN-FORCE IN mRy/a.u. = |F|  Fx       Fy             Fz
:FHF002:   2.ATOM      0.000000000      0.000000000      0.000000000      0.000000000

     HELLMANN-FEYNMAN-FORCE IN mRy/a.u. = |F|  Fx       Fy             Fz
:FHF003:   3.ATOM    633.342468613      0.000000000      0.000000000   -633.342468613

:FIT001: LUSE= 13 SIGMA OF V-XC FIT FOR ATOM  1  0.7569698E-02
:FIT001: LUSE= 13 SIGMA OF V-XC FIT FOR ATOM  1  0.7569698E-02
:FIT002: LUSE= 13 SIGMA OF V-XC FIT FOR ATOM  2  0.4811514E-02
:FIT002: LUSE= 13 SIGMA OF V-XC FIT FOR ATOM  2  0.4811514E-02
:FIT003: LUSE= 13 SIGMA OF V-XC FIT FOR ATOM  3  0.4855342E-04
:FIT003: LUSE= 13 SIGMA OF V-XC FIT FOR ATOM  3  0.4855342E-04
:DEN  : DENSITY INTEGRAL  =         -1791.58510637   (Ry)
       ELS_POTENTIAL_AT Z=0 and Z=0.5:   0.00000   0.00000
       ELS_POTENTIAL_AT Y=0 and Y=0.5:   0.00000   0.00000
:VZERO:v0,v0c,v0x  -0.83019   0.00000  -0.83019 v5,v5c,v5x  -0.83019   0.00000  -0.83019
:VZERY:v0,v0c,v0x  -0.83019   0.00000  -0.83019 v5,v5c,v5x  -0.83019   0.00000  -0.83019
:VZERX:v0,v0c,v0x  -2.47368  -1.25394  -1.21974 v5,v5c,v5x  -0.01023   0.44426  -0.45449

          ATOMIC SPHERE DEPENDENT PARAMETERS FOR ATOM  Cu1       
:e__0001: OVERALL ENERGY PARAMETER IS    0.3000
          OVERALL BASIS SET ON ATOM IS LAPW
:E1_0001: E( 1)=    0.3000
             APW+lo
:E1_0001: E( 1)=   -4.6485   E(BOTTOM)=   -4.714   E(TOP)=   -4.583  1  2   173
             LOCAL ORBITAL
:E2_0001: E( 2)=    0.2880   E(BOTTOM)=   -0.031   E(TOP)=    0.607  0  1   136
             APW+lo
:E0_0001: E( 0)=    0.3000
             APW+lo

          ATOMIC SPHERE DEPENDENT PARAMETERS FOR ATOM  Al1       
:e__0002: OVERALL ENERGY PARAMETER IS    0.3000
          OVERALL BASIS SET ON ATOM IS LAPW
:E1_0002: E( 1)=    0.3000
             APW+lo
:E1_0002: E( 1)=   -4.1255   E(BOTTOM)=   -4.231   E(TOP)=   -4.020  0  1   164
             LOCAL ORBITAL
:E0_0002: E( 0)=    0.3000
             APW+lo

          ATOMIC SPHERE DEPENDENT PARAMETERS FOR ATOM  O 1       
:e__0003: OVERALL ENERGY PARAMETER IS    0.3000
          OVERALL BASIS SET ON ATOM IS LAPW
:E0_0003: E( 0)=   -1.5500   E(BOTTOM)=   -2.792   E(TOP)= -200.000  1 -1   241
             APW+lo
:E0_0003: E( 0)=    0.7000
             LOCAL ORBITAL
:E1_0003: E( 1)=    0.3000
             APW+lo

       K=   0.00000   0.00000   0.00000            1
:RKM  : MATRIX SIZE   616LOs:  29  RKM= 6.98  WEIGHT= 1.00  PGR:    
       EIGENVALUES ARE:
:EIG00001:      -4.6407281   -4.6308488   -4.6308488   -4.1004685   -4.1004685
:EIG00006:      -4.0959343   -1.1956435   -1.0573884   -0.2098135    0.0635482
:EIG00011:       0.0635482    0.0676218    0.1312135    0.1312135    0.2219215
:EIG00016:       0.3272277    0.3272277    0.3616737    0.3616737    0.5748387
:EIG00021:       0.9045545    0.9512160    1.3464051    1.4893936    1.4893936
:EIG00026:       1.5575699    1.5866218    1.5866218    1.9074567    1.9668066
:EIG00031:       1.9668066
       ********************************************************

:KPT   :      NUMBER OF K-POINTS:    32
       Insulator, EF-inconsistency corrected
:GAP  :    0.1403 Ry =     1.908 eV   (provided you have a proper k-mesh)
         Bandranges (emin - emax) and occupancy:
:BAN00009:   9   -0.209813   -0.123915  2.00000000
:BAN00010:  10   -0.169938    0.063548  2.00000000
:BAN00011:  11   -0.115741    0.074605  2.00000000
:BAN00012:  12   -0.007533    0.074605  2.00000000
:BAN00013:  13    0.019659    0.131213  2.00000000
:BAN00014:  14    0.060487    0.131213  2.00000000
:BAN00015:  15    0.221921    0.329303  2.00000000
:BAN00016:  16    0.313715    0.340885  2.00000000
:BAN00017:  17    0.327228    0.363342  2.00000000
:BAN00018:  18    0.342847    0.376276  2.00000000
:BAN00019:  19    0.359344    0.434515  2.00000000
:BAN00020:  20    0.574839    0.907590  0.00000000
:BAN00021:  21    0.769084    1.049037  0.00000000
:BAN00022:  22    0.951216    1.180860  0.00000000
:BAN00023:  23    1.109878    1.346405  0.00000000
:BAN00024:  24    1.224946    1.491844  0.00000000
        Energy to separate low and high energystates:   -0.25981


:NOE  : NUMBER OF ELECTRONS          =  38.000

:FER  : F E R M I - ENERGY(TETRAH.M.)=   0.4345150943
:GMA  : POTENTIAL AND CHARGE CUT-OFF  12.00 Ry**.5




:POS001: ATOM   -1 X,Y,Z = 0.00000 0.00000 0.00000  MULT= 1  ZZ= 29.000  Cu1       

       LMMAX  7
       LM=   0 0  2 0  4 0  4 3  6 0  6 3  6 6

:CHA001: TOTAL VALENCE CHARGE INSIDE SPHERE   1 =  15.4431    (RMT=  2.0000 )
:PCS001: PARTIAL CHARGES SPHERE =  1 S,P,D,F,PZ,PXY, D-Z2,D-XY,X2Y2,D-XZ,YZ 
:QTL001: 0.2107 6.1195 9.0894 0.0173 2.0923 4.0272 0.0000 1.6625 3.6778 3.7491 0.0000 0.0000
        Q-s-low E-s-low   Q-p-low E-p-low   Q-d-low E-d-low   Q-f-low E-f-low
:EPL001:  0.0133 -1.0834    5.9995 -4.6253    0.0169 -1.0818    0.0027 -1.0845
        Q-s-hi  E-s-hi    Q-p-hi  E-p-hi    Q-d-hi  E-d-hi    Q-f-hi  E-f-hi 
:EPH001:  0.1975  0.1303    0.1200  0.0533    9.0726  0.3276    0.0146  0.0228
:VZZ001: EFG INSIDE SPHERE   1 =    -4.654149      UP TO R =   2.00000




:POS002: ATOM   -2 X,Y,Z = 0.50000 0.50000 0.50000  MULT= 1  ZZ= 13.000  Al1       

       LMMAX  7
       LM=   0 0  2 0  4 0  4 3  6 0  6 3  6 6

:CHA002: TOTAL VALENCE CHARGE INSIDE SPHERE   2 =   6.5281    (RMT=  1.8000 )
:PCS002: PARTIAL CHARGES SPHERE =  2 S,P,D,F,PZ,PXY, D-Z2,D-XY,X2Y2,D-XZ,YZ 
:QTL002: 0.1871 6.2052 0.1119 0.0194 2.0585 4.1467 0.0000 0.0082 0.0480 0.0557 0.0000 0.0000
        Q-s-low E-s-low   Q-p-low E-p-low   Q-d-low E-d-low   Q-f-low E-f-low
:EPL002:  0.0301 -1.1405    6.0062 -4.0809    0.0154 -1.0580    0.0030 -1.0781
        Q-s-hi  E-s-hi    Q-p-hi  E-p-hi    Q-d-hi  E-d-hi    Q-f-hi  E-f-hi 
:EPH002:  0.1569 -0.1200    0.1989 -0.0227    0.0965  0.0273    0.0164  0.0443
:VZZ002: EFG INSIDE SPHERE   2 =     0.950702      UP TO R =   1.80000




:POS003: ATOM   -3 X,Y,Z = 0.10979 0.10979 0.10979  MULT= 2  ZZ=  8.000  O 1       

       LMMAX 12
       LM=   0 0  1 0  2 0  3 0  3 3  4 0  4 3  5 0  5 3  6 0  6 3  6 6

:CHA003: TOTAL VALENCE CHARGE INSIDE SPHERE   3 =   4.9660    (RMT=  1.4000 )
:PCS003: PARTIAL CHARGES SPHERE =  3 S,P,D,F,PZ,PXY, D-Z2,D-XY,X2Y2,D-XZ,YZ 
:QTL003: 1.4249 3.5336 0.0065 0.0007 1.1527 2.3809 0.0000 0.0015 0.0009 0.0041 0.0000 0.0000
        Q-s-low E-s-low   Q-p-low E-p-low   Q-d-low E-d-low   Q-f-low E-f-low
:EPL003:  1.3831 -1.0828    0.0064 -1.2767    0.0002 -2.6621    0.0001 -2.4751
        Q-s-hi  E-s-hi    Q-p-hi  E-p-hi    Q-d-hi  E-d-hi    Q-f-hi  E-f-hi 
:EPH003:  0.0418 -0.0609    3.5272  0.0053    0.0063  0.1866    0.0006  0.2358
:VZZ003: EFG INSIDE SPHERE   3 =     2.630775      UP TO R =   1.40000

:CHA  : TOTAL VALENCE CHARGE INSIDE UNIT CELL =      38.000000

:SUM  : SUM OF EIGENVALUES =         -53.564761118


        1.ATOM      Cu1                   5 CORE STATES
:1S 001: 1S                -649.705732691 Ry
:2S 001: 2S                 -77.430237248 Ry
:2PP001: 2P*                -67.744370335 Ry
:2P 001: 2P                 -66.238448812 Ry
:3S 001: 3S                  -7.770292626 Ry

        2.ATOM      Al1                   2 CORE STATES
:1S 002: 1S                -110.024920271 Ry
:2S 002: 2S                  -6.930087119 Ry

        3.ATOM      O 1                   1 CORE STATES
       CORE-FORCE in mRy/a.u. = |F|      Fx             Fy             Fz
:FCO003:   3.ATOM    160.288446928      0.000000000      0.000000000    160.288446928

:1S 003: 1S                 -36.977013179 Ry
:CINT001 Core Integral Atom   1   11.998557
:CINT002 Core Integral Atom   2    3.995890
:CINT003 Core Integral Atom   3    1.999999

       DENSITY AT NUCLEUS
        JATOM        VALENCE       SEMI-CORE          CORE           TOTAL
:RTO001:   1        5.904853        0.000000    22630.787820    22636.692673
:RTO002:   2        2.341355        0.000000     1486.726621     1489.067975
:RTO003:   3       15.607767        0.000000      303.968862      319.576629
     
       CHARGES OF NEW CHARGE DENSITY
:NTO   : INTERSTITIAL CHARGE =     6.096796
:NTO001: CHARGE SPHERE  1    =    27.441701
:NTO002: CHARGE SPHERE  2    =    10.524023
:NTO003: CHARGE SPHERE  3    =     6.965951

:NEC01: NUCLEAR AND ELECTRONIC CHARGE     58.00000    57.99442
     
       CHARGES OF OLD CHARGE DENSITY
:OTO   : INTERSTITIAL CHARGE =     7.173275
:OTO001: CHARGE SPHERE  1    =    27.282985
:OTO002: CHARGE SPHERE  2    =    10.843492
:OTO003: CHARGE SPHERE  3    =     6.350577

:NEC02: NUCLEAR AND ELECTRONIC CHARGE     58.00000    58.00091
     
       CONVERGENCE TEST
:DTO001: DIFFERENCE IN SPHERE  1 =  0.5829060
:DTO002: DIFFERENCE IN SPHERE  2 =  0.2959105
:DTO003: DIFFERENCE IN SPHERE  3 =  0.7849439

:DIS  :  CHARGE DISTANCE       ( 0.7849439 for atom    3 spin 1)      0.6121760
:BIG check (qbig,qrms,qtot)    0.262D+00   0.455D+00   0.612D+00
 
******************************************************
* MULTISECANT MIXING VER6 RELEASE 6.0 OPTIONS        *
* Standard Mode with controls                        *
* Regularization       1.000E-06                     *
* Trust Region Control Active                        *
* Max Number of Memory Steps    8                    *
******************************************************
 
:PLANE:  INTERSTITIAL TOTAL      1.68238 DISTAN  2.189E+01 % 
:CHARG:  CLM CHARGE   /ATOM     54.20733 DISTAN  1.737E+00 % 
:REDuction and DMIX in Broyd:    0.7922    0.1584
:DIRM :  MEMORY  0/ 8 RESCALES   1.00
:MIX  :   PRATT  REGULARIZATION: 1.00E-06  GREED: 0.035
     
       CHARGES OF MIXED CHARGE DENSITY
:CTO   : INTERSTITIAL CHARGE =     7.134918
:CTO001: CHARGE SPHERE  1    =    27.288540
:CTO002: CHARGE SPHERE  2    =    10.832310
:CTO003: CHARGE SPHERE  3    =     6.372115

:NEC03: NUCLEAR AND ELECTRONIC CHARGE     58.00000    58.00000

PW CHANGE     H    K    L       Current     Change     Residue
:PTO001:      0    0    0  6.77320770E-02 -1.659E-04 -4.740E-03
:PTO002:     -1   -1   -1 -1.79839289E-02 -2.362E-04 -6.747E-03
:PTO003:     -2   -2   -2 -2.34928217E-03 -2.871E-04 -8.201E-03
:PTO004:     -1    0    0  1.09738791E-01  4.416E-04  1.262E-02
:PTO005:     -1   -1    0  6.53531144E-02 -3.127E-04 -8.934E-03
:PTO006:     -2   -1   -1 -5.23364303E-02 -1.069E-03 -3.053E-02
:PTO007:     -2   -2   -1 -6.42973461E-02 -7.960E-04 -2.274E-02
:PTO008:     -3   -3   -3  2.96207836E-02  1.461E-04  4.173E-03
:PTO009:     -3   -2   -2  1.80121217E-02 -2.004E-05 -5.724E-04
:PTO010:     -3   -3   -2  5.25696441E-02  1.055E-04  3.014E-03
:PTO011:     -1    0    1  4.60654627E-02 -4.237E-05 -1.211E-03
:PTO012:     -4   -4   -4 -2.27747931E-03 -1.261E-04 -3.602E-03

:ENE  : ********** TOTAL ENERGY IN Ry =        -4097.22299603

       TOTAL FORCE IN mRy/a.u. = |F|     Fx             Fy             Fz     with/without FOR in case.in2
:FOR001:   1.ATOM          0.000          0.000          0.000          0.000 partial forces
:FOR002:   2.ATOM          0.000          0.000          0.000          0.000 partial forces
:FOR003:   3.ATOM        473.054          0.000          0.000       -473.054 partial forces
       TOTAL FORCE WITH RESPECT TO GLOBAL CARTESIAN COORDINATES:
:FCA001:   1.ATOM                         0.000          0.000          0.000 partial forces
:FCA002:   2.ATOM                         0.000          0.000          0.000 partial forces
:FCA003:   3.ATOM                         0.000          0.000       -473.054 partial forces
       TOTAL FORCE WITH RESPECT TO THE GLOBAL COORDINATE SYSTEM:
:FGL001:   1.ATOM                 0.000000000     0.000000000     0.000000000 partial forces
:FGL002:   2.ATOM                 0.000000000     0.000000000     0.000000000 partial forces
:FGL003:   3.ATOM              -473.054021685  -473.054021685  -473.054021685 partial forces


            ---------
:ITE002:  2. ITERATION
            ---------

:NATO :    3 INDEPENDENT AND    4 TOTAL ATOMS IN UNITCELL
       SUBSTANCE: CuAlO2 BenkoF84                                             

       LATTICE                      = R   
:POT  : POTENTIAL OPTION EX_PBE EC_PBE VX_PBE VC_PBE
:LAT  : LATTICE CONSTANTS=  5.40508  5.40508 32.03482
:VOL  : UNIT CELL VOLUME =     270.16967
       MODE OF CALCULATION IS       = RELA
       NON-SPINPOLARIZED CALCULATION
:IFFT  : FFT-parameters:   90   90   90 Factor: 2.00
       ATOMNUMBER=  1 Cu1        VCOUL-ZERO =  0.40247E+00
:EFG001:                        EFG         =    -0.03324   *10**21  V / m**2
                               V20  TOT/SRF=    -0.02879     0.31503
                               V22  TOT/SRF=     0.00000     0.00000
                               V22M TOT/SRF=     0.00000     0.00000
                               V21  TOT/SRF=     0.00000     0.00000
                               V21M TOT/SRF=     0.00000     0.00000

              0.01662    0.00000    0.00000        0.01662    0.00000    0.00000
              0.00000    0.01662    0.00000        0.00000    0.01662    0.00000
              0.00000    0.00000   -0.03324        0.00000    0.00000   -0.03324

         MAIN DIRECTIONS OF THE EFG   1.0000  0.0000  0.0000
                                      0.0000  1.0000  0.0000
                                      0.0000  0.0000  1.0000
:ANG001:  ANGLE WITH OLD X-AXIS =         0.0

:ETA001:                         ASYMM. ETA =     0.00000


       ATOMNUMBER=  2 Al1        VCOUL-ZERO = -0.82902E-01
:EFG002:                        EFG         =    -0.10305   *10**21  V / m**2
                               V20  TOT/SRF=    -0.08924    -0.18549
                               V22  TOT/SRF=     0.00000     0.00000
                               V22M TOT/SRF=     0.00000     0.00000
                               V21  TOT/SRF=     0.00000     0.00000
                               V21M TOT/SRF=     0.00000     0.00000

              0.05152    0.00000    0.00000        0.05152    0.00000    0.00000
              0.00000    0.05152    0.00000        0.00000    0.05152    0.00000
              0.00000    0.00000   -0.10305        0.00000    0.00000   -0.10305

         MAIN DIRECTIONS OF THE EFG   1.0000  0.0000  0.0000
                                      0.0000  1.0000  0.0000
                                      0.0000  0.0000  1.0000
:ANG002:  ANGLE WITH OLD X-AXIS =         0.0

:ETA002:                         ASYMM. ETA =     0.00000


       ATOMNUMBER=  3 O 1        VCOUL-ZERO =  0.29359E-01
:EFG003:                        EFG         =     0.33532   *10**21  V / m**2
                               V20  TOT/SRF=     0.29040     0.27226
                               V22  TOT/SRF=     0.00000     0.00000
                               V22M TOT/SRF=     0.00000     0.00000
                               V21  TOT/SRF=     0.00000     0.00000
                               V21M TOT/SRF=     0.00000     0.00000

             -0.16766    0.00000    0.00000       -0.16766    0.00000    0.00000
              0.00000   -0.16766    0.00000        0.00000   -0.16766    0.00000
              0.00000    0.00000    0.33532        0.00000    0.00000    0.33532

         MAIN DIRECTIONS OF THE EFG   1.0000  0.0000  0.0000
                                      0.0000  1.0000  0.0000
                                      0.0000  0.0000  1.0000
:ANG003:  ANGLE WITH OLD X-AXIS =         0.0

:ETA003:                         ASYMM. ETA =     0.00000


     HELLMANN-FEYNMAN-FORCE IN mRy/a.u. = |F|  Fx       Fy             Fz
:FHF001:   1.ATOM      0.000000000      0.000000000      0.000000000      0.000000000

     HELLMANN-FEYNMAN-FORCE IN mRy/a.u. = |F|  Fx       Fy             Fz
:FHF002:   2.ATOM      0.000000000      0.000000000      0.000000000      0.000000000

     HELLMANN-FEYNMAN-FORCE IN mRy/a.u. = |F|  Fx       Fy             Fz
:FHF003:   3.ATOM    598.284484673      0.000000000      0.000000000   -598.284484673

:FIT001: LUSE= 13 SIGMA OF V-XC FIT FOR ATOM  1  0.7537269E-02
:FIT001: LUSE= 13 SIGMA OF V-XC FIT FOR ATOM  1  0.7537269E-02
:FIT002: LUSE= 13 SIGMA OF V-XC FIT FOR ATOM  2  0.4803889E-02
:FIT002: LUSE= 13 SIGMA OF V-XC FIT FOR ATOM  2  0.4803889E-02
:FIT003: LUSE= 13 SIGMA OF V-XC FIT FOR ATOM  3  0.5228034E-04
:FIT003: LUSE= 13 SIGMA OF V-XC FIT FOR ATOM  3  0.5228034E-04
:DEN  : DENSITY INTEGRAL  =         -1792.22682148   (Ry)
       ELS_POTENTIAL_AT Z=0 and Z=0.5:   0.00000   0.00000
       ELS_POTENTIAL_AT Y=0 and Y=0.5:   0.00000   0.00000
:VZERO:v0,v0c,v0x  -0.82830   0.00000  -0.82830 v5,v5c,v5x  -0.82830   0.00000  -0.82830
:VZERY:v0,v0c,v0x  -0.82830   0.00000  -0.82830 v5,v5c,v5x  -0.82830   0.00000  -0.82830
:VZERX:v0,v0c,v0x  -2.45818  -1.23857  -1.21961 v5,v5c,v5x  -0.01881   0.43020  -0.44901

          ATOMIC SPHERE DEPENDENT PARAMETERS FOR ATOM  Cu1       
:e__0001: OVERALL ENERGY PARAMETER IS    0.2509
          OVERALL BASIS SET ON ATOM IS LAPW
:E1_0001: E( 1)=    0.2509
             APW+lo
:E1_0001: E( 1)=   -4.6385   E(BOTTOM)=   -4.704   E(TOP)=   -4.573  1  2   172
             LOCAL ORBITAL
:E2_0001: E( 2)=    0.2959   E(BOTTOM)=   -0.025   E(TOP)=    0.617  0  1   131
             APW+lo
:E0_0001: E( 0)=    0.2509
             APW+lo

          ATOMIC SPHERE DEPENDENT PARAMETERS FOR ATOM  Al1       
:e__0002: OVERALL ENERGY PARAMETER IS    0.2509
          OVERALL BASIS SET ON ATOM IS LAPW
:E1_0002: E( 1)=    0.2509
             APW+lo
:E1_0002: E( 1)=   -4.1315   E(BOTTOM)=   -4.237   E(TOP)=   -4.026  0  1   167
             LOCAL ORBITAL
:E0_0002: E( 0)=    0.2509
             APW+lo

          ATOMIC SPHERE DEPENDENT PARAMETERS FOR ATOM  O 1       
:e__0003: OVERALL ENERGY PARAMETER IS    0.2509
          OVERALL BASIS SET ON ATOM IS LAPW
:E0_0003: E( 0)=   -1.5500   E(BOTTOM)=   -2.773   E(TOP)= -200.000  1 -1   244
             APW+lo
:E0_0003: E( 0)=    0.6509
             LOCAL ORBITAL
:E1_0003: E( 1)=    0.2509
             APW+lo

       K=   0.00000   0.00000   0.00000            1
:RKM  : MATRIX SIZE   616LOs:  29  RKM= 6.98  WEIGHT= 1.00  PGR:    
       EIGENVALUES ARE:
:EIG00001:      -4.6302952   -4.6209369   -4.6209369   -4.1064551   -4.1064551
:EIG00006:      -4.1023033   -1.1803701   -1.0404456   -0.1979879    0.0801812
:EIG00011:       0.0801812    0.0842281    0.1491456    0.1491456    0.2236691
:EIG00016:       0.3342012    0.3342012    0.3706115    0.3706115    0.5826192
:EIG00021:       0.9087047    0.9592827    1.3480689    1.4922590    1.4922590
:EIG00026:       1.5634360    1.5903617    1.5903617    1.9052934
       ********************************************************

:KPT   :      NUMBER OF K-POINTS:    32
       Insulator, EF-inconsistency corrected
:GAP  :    0.1385 Ry =     1.884 eV   (provided you have a proper k-mesh)
         Bandranges (emin - emax) and occupancy:
:BAN00009:   9   -0.197988   -0.110114  2.00000000
:BAN00010:  10   -0.157276    0.080181  2.00000000
:BAN00011:  11   -0.102266    0.091846  2.00000000
:BAN00012:  12    0.006325    0.091846  2.00000000
:BAN00013:  13    0.034799    0.149146  2.00000000
:BAN00014:  14    0.076340    0.149146  2.00000000
:BAN00015:  15    0.223669    0.335922  2.00000000
:BAN00016:  16    0.320282    0.349595  2.00000000
:BAN00017:  17    0.334201    0.371190  2.00000000
:BAN00018:  18    0.351529    0.384102  2.00000000
:BAN00019:  19    0.368196    0.444084  2.00000000
:BAN00020:  20    0.582619    0.906346  0.00000000
:BAN00021:  21    0.775072    1.057822  0.00000000
:BAN00022:  22    0.959283    1.186596  0.00000000
:BAN00023:  23    1.111879    1.348069  0.00000000
:BAN00024:  24    1.229912    1.494825  0.00000000
        Energy to separate low and high energystates:   -0.24799


:NOE  : NUMBER OF ELECTRONS          =  38.000

:FER  : F E R M I - ENERGY(TETRAH.M.)=   0.4440835761
:GMA  : POTENTIAL AND CHARGE CUT-OFF  12.00 Ry**.5




:POS001: ATOM   -1 X,Y,Z = 0.00000 0.00000 0.00000  MULT= 1  ZZ= 29.000  Cu1       

       LMMAX  7
       LM=   0 0  2 0  4 0  4 3  6 0  6 3  6 6

:CHA001: TOTAL VALENCE CHARGE INSIDE SPHERE   1 =  15.4289    (RMT=  2.0000 )
:PCS001: PARTIAL CHARGES SPHERE =  1 S,P,D,F,PZ,PXY, D-Z2,D-XY,X2Y2,D-XZ,YZ 
:QTL001: 0.2178 6.1230 9.0646 0.0174 2.0939 4.0292 0.0000 1.6483 3.6708 3.7454 0.0000 0.0000
        Q-s-low E-s-low   Q-p-low E-p-low   Q-d-low E-d-low   Q-f-low E-f-low
:EPL001:  0.0136 -1.0664    5.9996 -4.6151    0.0171 -1.0647    0.0027 -1.0667
        Q-s-hi  E-s-hi    Q-p-hi  E-p-hi    Q-d-hi  E-d-hi    Q-f-hi  E-f-hi 
:EPH001:  0.2042  0.1411    0.1234  0.0689    9.0475  0.3350    0.0147  0.0392
:VZZ001: EFG INSIDE SPHERE   1 =    -4.491985      UP TO R =   2.00000




:POS002: ATOM   -2 X,Y,Z = 0.50000 0.50000 0.50000  MULT= 1  ZZ= 13.000  Al1       

       LMMAX  7
       LM=   0 0  2 0  4 0  4 3  6 0  6 3  6 6

:CHA002: TOTAL VALENCE CHARGE INSIDE SPHERE   2 =   6.5389    (RMT=  1.8000 )
:PCS002: PARTIAL CHARGES SPHERE =  2 S,P,D,F,PZ,PXY, D-Z2,D-XY,X2Y2,D-XZ,YZ 
:QTL002: 0.1910 6.2101 0.1137 0.0195 2.0602 4.1499 0.0000 0.0083 0.0487 0.0567 0.0000 0.0000
        Q-s-low E-s-low   Q-p-low E-p-low   Q-d-low E-d-low   Q-f-low E-f-low
:EPL002:  0.0308 -1.1243    6.0070 -4.0866    0.0155 -1.0407    0.0030 -1.0609
        Q-s-hi  E-s-hi    Q-p-hi  E-p-hi    Q-d-hi  E-d-hi    Q-f-hi  E-f-hi 
:EPH002:  0.1602 -0.1065    0.2031 -0.0075    0.0982  0.0431    0.0165  0.0602
:VZZ002: EFG INSIDE SPHERE   2 =     0.974647      UP TO R =   1.80000




:POS003: ATOM   -3 X,Y,Z = 0.10979 0.10979 0.10979  MULT= 2  ZZ=  8.000  O 1       

       LMMAX 12
       LM=   0 0  1 0  2 0  3 0  3 3  4 0  4 3  5 0  5 3  6 0  6 3  6 6

:CHA003: TOTAL VALENCE CHARGE INSIDE SPHERE   3 =   4.9306    (RMT=  1.4000 )
:PCS003: PARTIAL CHARGES SPHERE =  3 S,P,D,F,PZ,PXY, D-Z2,D-XY,X2Y2,D-XZ,YZ 
:QTL003: 1.4206 3.5025 0.0066 0.0007 1.1414 2.3611 0.0000 0.0015 0.0010 0.0041 0.0000 0.0000
        Q-s-low E-s-low   Q-p-low E-p-low   Q-d-low E-d-low   Q-f-low E-f-low
:EPL003:  1.3778 -1.0658    0.0063 -1.2624    0.0002 -2.6378    0.0001 -2.4536
        Q-s-hi  E-s-hi    Q-p-hi  E-p-hi    Q-d-hi  E-d-hi    Q-f-hi  E-f-hi 
:EPH003:  0.0428 -0.0481    3.4962  0.0209    0.0063  0.1966    0.0006  0.2446
:VZZ003: EFG INSIDE SPHERE   3 =     2.695811      UP TO R =   1.40000

:CHA  : TOTAL VALENCE CHARGE INSIDE UNIT CELL =      38.000000

:SUM  : SUM OF EIGENVALUES =         -53.220914994


        1.ATOM      Cu1                   5 CORE STATES
:1S 001: 1S                -649.687257709 Ry
:2S 001: 2S                 -77.411583013 Ry
:2PP001: 2P*                -67.725560799 Ry
:2P 001: 2P                 -66.219656106 Ry
:3S 001: 3S                  -7.759609837 Ry

        2.ATOM      Al1                   2 CORE STATES
:1S 002: 1S                -110.034137765 Ry
:2S 002: 2S                  -6.936105037 Ry

        3.ATOM      O 1                   1 CORE STATES
       CORE-FORCE in mRy/a.u. = |F|      Fx             Fy             Fz
:FCO003:   3.ATOM    152.689523480      0.000000000      0.000000000    152.689523480

:1S 003: 1S                 -36.938564364 Ry
:CINT001 Core Integral Atom   1   11.998548
:CINT002 Core Integral Atom   2    3.995903
:CINT003 Core Integral Atom   3    1.999999

       DENSITY AT NUCLEUS
        JATOM        VALENCE       SEMI-CORE          CORE           TOTAL
:RTO001:   1        6.122402        0.000000    22630.582418    22636.704819
:RTO002:   2        2.395683        0.000000     1486.759688     1489.155372
:RTO003:   3       15.519065        0.000000      303.954082      319.473147
     
       CHARGES OF NEW CHARGE DENSITY
:NTO   : INTERSTITIAL CHARGE =     6.170961
:NTO001: CHARGE SPHERE  1    =    27.427460
:NTO002: CHARGE SPHERE  2    =    10.534806
:NTO003: CHARGE SPHERE  3    =     6.930599

:NEC01: NUCLEAR AND ELECTRONIC CHARGE     58.00000    57.99443
     
       CHARGES OF OLD CHARGE DENSITY
:OTO   : INTERSTITIAL CHARGE =     7.134918
:OTO001: CHARGE SPHERE  1    =    27.288540
:OTO002: CHARGE SPHERE  2    =    10.832310
:OTO003: CHARGE SPHERE  3    =     6.372115

:NEC02: NUCLEAR AND ELECTRONIC CHARGE     58.00000    58.00000
     
       CONVERGENCE TEST
:DTO001: DIFFERENCE IN SPHERE  1 =  0.4938539
:DTO002: DIFFERENCE IN SPHERE  2 =  0.2749958
:DTO003: DIFFERENCE IN SPHERE  3 =  0.7046851

:DIS  :  CHARGE DISTANCE       ( 0.7046851 for atom    3 spin 1)      0.5445550
:BIG check (qbig,qrms,qtot)    0.235D+00   0.405D+00   0.545D+00
 
******************************************************
* MULTISECANT MIXING VER6 RELEASE 6.0 OPTIONS        *
* Standard Mode with controls                        *
* Regularization       1.000E-06                     *
* Trust Region Control Active                        *
* Max Number of Memory Steps    8                    *
******************************************************
 
:PLANE:  INTERSTITIAL TOTAL      1.68538 DISTAN  2.066E+01 % 
:CHARG:  CLM CHARGE   /ATOM     54.21349 DISTAN  1.575E+00 % 
:REDuction and DMIX in Broyd:    0.8301    0.1660
 
 Step History DMIX, Red, Pred, Trust, FRMS, FABS
  2  3.5000E-02  1.0000E+00  1.0000E+00  1.0000E+00
  
:DIRM :  MEMORY  1/ 8 RESCALES   7.51
:MIX  :   PRATT  REGULARIZATION: 1.00E-06  GREED: 0.088  Expand 2.50  0.09                
     
       CHARGES OF MIXED CHARGE DENSITY
:CTO   : INTERSTITIAL CHARGE =     7.041294
:CTO001: CHARGE SPHERE  1    =    27.302428
:CTO002: CHARGE SPHERE  2    =    10.804357
:CTO003: CHARGE SPHERE  3    =     6.425961

:NEC03: NUCLEAR AND ELECTRONIC CHARGE     58.00000    58.00000

PW CHANGE     H    K    L       Current     Change     Residue
:PTO001:      0    0    0  6.73173480E-02 -4.147E-04 -4.310E-03
:PTO002:     -1   -1   -1 -1.85743179E-02 -5.904E-04 -6.280E-03
:PTO003:     -2   -2   -2 -3.06691206E-03 -7.176E-04 -7.697E-03
:PTO004:     -1    0    0  1.10842701E-01  1.104E-03  1.165E-02
:PTO005:     -1   -1    0  6.45714142E-02 -7.817E-04 -8.678E-03
:PTO006:     -2   -1   -1 -5.50082034E-02 -2.672E-03 -2.891E-02
:PTO007:     -2   -2   -1 -6.62874345E-02 -1.990E-03 -2.139E-02
:PTO008:     -3   -3   -3  2.99859270E-02  3.651E-04  3.886E-03
:PTO009:     -3   -2   -2  1.79620337E-02 -5.009E-05 -6.198E-04
:PTO010:     -3   -3   -2  5.28333782E-02  2.637E-04  2.467E-03
:PTO011:     -1    0    1  4.59595433E-02 -1.059E-04 -1.731E-03
:PTO012:     -4   -4   -4 -2.59263600E-03 -3.152E-04 -3.450E-03

:ENE  : ********** TOTAL ENERGY IN Ry =        -4097.18912667

       TOTAL FORCE IN mRy/a.u. = |F|     Fx             Fy             Fz     with/without FOR in case.in2
:FOR001:   1.ATOM          0.000          0.000          0.000          0.000 partial forces
:FOR002:   2.ATOM          0.000          0.000          0.000          0.000 partial forces
:FOR003:   3.ATOM        445.595          0.000          0.000       -445.595 partial forces
       TOTAL FORCE WITH RESPECT TO GLOBAL CARTESIAN COORDINATES:
:FCA001:   1.ATOM                         0.000          0.000          0.000 partial forces
:FCA002:   2.ATOM                         0.000          0.000          0.000 partial forces
:FCA003:   3.ATOM                         0.000          0.000       -445.595 partial forces
       TOTAL FORCE WITH RESPECT TO THE GLOBAL COORDINATE SYSTEM:
:FGL001:   1.ATOM                 0.000000000     0.000000000     0.000000000 partial forces
:FGL002:   2.ATOM                 0.000000000     0.000000000     0.000000000 partial forces
:FGL003:   3.ATOM              -445.594961193  -445.594961193  -445.594961193 partial forces


            ---------
:ITE003:  3. ITERATION
            ---------

:NATO :    3 INDEPENDENT AND    4 TOTAL ATOMS IN UNITCELL
       SUBSTANCE: CuAlO2 BenkoF84                                             

       LATTICE                      = R   
:POT  : POTENTIAL OPTION EX_PBE EC_PBE VX_PBE VC_PBE
:LAT  : LATTICE CONSTANTS=  5.40508  5.40508 32.03482
:VOL  : UNIT CELL VOLUME =     270.16967
       MODE OF CALCULATION IS       = RELA
       NON-SPINPOLARIZED CALCULATION
:IFFT  : FFT-parameters:   90   90   90 Factor: 2.00
       ATOMNUMBER=  1 Cu1        VCOUL-ZERO =  0.39062E+00
:EFG001:                        EFG         =    -0.46186   *10**21  V / m**2
                               V20  TOT/SRF=    -0.39998     0.27086
                               V22  TOT/SRF=     0.00000     0.00000
                               V22M TOT/SRF=     0.00000     0.00000
                               V21  TOT/SRF=     0.00000     0.00000
                               V21M TOT/SRF=     0.00000     0.00000

              0.23093    0.00000    0.00000        0.23093    0.00000    0.00000
              0.00000    0.23093    0.00000        0.00000    0.23093    0.00000
              0.00000    0.00000   -0.46186        0.00000    0.00000   -0.46186

         MAIN DIRECTIONS OF THE EFG   1.0000  0.0000  0.0000
                                      0.0000  1.0000  0.0000
                                      0.0000  0.0000  1.0000
:ANG001:  ANGLE WITH OLD X-AXIS =         0.0

:ETA001:                         ASYMM. ETA =     0.00000


       ATOMNUMBER=  2 Al1        VCOUL-ZERO = -0.83405E-01
:EFG002:                        EFG         =    -0.00135   *10**21  V / m**2
                               V20  TOT/SRF=    -0.00117    -0.15785
                               V22  TOT/SRF=     0.00000     0.00000
                               V22M TOT/SRF=     0.00000     0.00000
                               V21  TOT/SRF=     0.00000     0.00000
                               V21M TOT/SRF=     0.00000     0.00000

              0.00067    0.00000    0.00000        0.00067    0.00000    0.00000
              0.00000    0.00067    0.00000        0.00000    0.00067    0.00000
              0.00000    0.00000   -0.00135        0.00000    0.00000   -0.00135

         MAIN DIRECTIONS OF THE EFG   1.0000  0.0000  0.0000
                                      0.0000  1.0000  0.0000
                                      0.0000  0.0000  1.0000
:ANG002:  ANGLE WITH OLD X-AXIS =         0.0

:ETA002:                         ASYMM. ETA =     0.00000


       ATOMNUMBER=  3 O 1        VCOUL-ZERO =  0.60086E-01
:EFG003:                        EFG         =     0.56846   *10**21  V / m**2
                               V20  TOT/SRF=     0.49230     0.26869
                               V22  TOT/SRF=     0.00000     0.00000
                               V22M TOT/SRF=     0.00000     0.00000
                               V21  TOT/SRF=     0.00000     0.00000
                               V21M TOT/SRF=     0.00000     0.00000

             -0.28423    0.00000    0.00000       -0.28423    0.00000    0.00000
              0.00000   -0.28423    0.00000        0.00000   -0.28423    0.00000
              0.00000    0.00000    0.56846        0.00000    0.00000    0.56846

         MAIN DIRECTIONS OF THE EFG   1.0000  0.0000  0.0000
                                      0.0000  1.0000  0.0000
                                      0.0000  0.0000  1.0000
:ANG003:  ANGLE WITH OLD X-AXIS =         0.0

:ETA003:                         ASYMM. ETA =     0.00000


     HELLMANN-FEYNMAN-FORCE IN mRy/a.u. = |F|  Fx       Fy             Fz
:FHF001:   1.ATOM      0.000000000      0.000000000      0.000000000      0.000000000

     HELLMANN-FEYNMAN-FORCE IN mRy/a.u. = |F|  Fx       Fy             Fz
:FHF002:   2.ATOM      0.000000000      0.000000000      0.000000000      0.000000000

     HELLMANN-FEYNMAN-FORCE IN mRy/a.u. = |F|  Fx       Fy             Fz
:FHF003:   3.ATOM    509.880233705      0.000000000      0.000000000   -509.880233705

:FIT001: LUSE= 13 SIGMA OF V-XC FIT FOR ATOM  1  0.7423816E-02
:FIT001: LUSE= 13 SIGMA OF V-XC FIT FOR ATOM  1  0.7423816E-02
:FIT002: LUSE= 13 SIGMA OF V-XC FIT FOR ATOM  2  0.4770499E-02
:FIT002: LUSE= 13 SIGMA OF V-XC FIT FOR ATOM  2  0.4770499E-02
:FIT003: LUSE= 13 SIGMA OF V-XC FIT FOR ATOM  3  0.6213620E-04
:FIT003: LUSE= 13 SIGMA OF V-XC FIT FOR ATOM  3  0.6213620E-04
:DEN  : DENSITY INTEGRAL  =         -1793.84001056   (Ry)
       ELS_POTENTIAL_AT Z=0 and Z=0.5:   0.00000   0.00000
       ELS_POTENTIAL_AT Y=0 and Y=0.5:   0.00000   0.00000
:VZERO:v0,v0c,v0x  -0.82355   0.00000  -0.82355 v5,v5c,v5x  -0.82355   0.00000  -0.82355
:VZERY:v0,v0c,v0x  -0.82355   0.00000  -0.82355 v5,v5c,v5x  -0.82355   0.00000  -0.82355
:VZERX:v0,v0c,v0x  -2.41970  -1.20033  -1.21936 v5,v5c,v5x  -0.04001   0.39507  -0.43508

          ATOMIC SPHERE DEPENDENT PARAMETERS FOR ATOM  Cu1       
:e__0001: OVERALL ENERGY PARAMETER IS    0.2458
          OVERALL BASIS SET ON ATOM IS LAPW
:E1_0001: E( 1)=    0.2458
             APW+lo
:E1_0001: E( 1)=   -4.6137   E(BOTTOM)=   -4.680   E(TOP)=   -4.547  1  2   171
             LOCAL ORBITAL
:E2_0001: E( 2)=    0.3154   E(BOTTOM)=   -0.011   E(TOP)=    0.641  0  1   132
             APW+lo
:E0_0001: E( 0)=    0.2458
             APW+lo

          ATOMIC SPHERE DEPENDENT PARAMETERS FOR ATOM  Al1       
:e__0002: OVERALL ENERGY PARAMETER IS    0.2458
          OVERALL BASIS SET ON ATOM IS LAPW
:E1_0002: E( 1)=    0.2458
             APW+lo
:E1_0002: E( 1)=   -4.1464   E(BOTTOM)=   -4.251   E(TOP)=   -4.042  0  1   165
             LOCAL ORBITAL
:E0_0002: E( 0)=    0.2458
             APW+lo

          ATOMIC SPHERE DEPENDENT PARAMETERS FOR ATOM  O 1       
:e__0003: OVERALL ENERGY PARAMETER IS    0.2458
          OVERALL BASIS SET ON ATOM IS LAPW
:E0_0003: E( 0)=   -1.5500   E(BOTTOM)=   -2.724   E(TOP)= -200.000  1 -1   235
             APW+lo
:E0_0003: E( 0)=    0.6458
             LOCAL ORBITAL
:E1_0003: E( 1)=    0.2458
             APW+lo

       K=   0.00000   0.00000   0.00000            1
:RKM  : MATRIX SIZE   616LOs:  29  RKM= 6.98  WEIGHT= 1.00  PGR:    
       EIGENVALUES ARE:
:EIG00001:      -4.6043366   -4.5963031   -4.5963031   -4.1212126   -4.1212126
:EIG00006:      -4.1180228   -1.1423491   -0.9982058   -0.1690942    0.1214272
:EIG00011:       0.1214272    0.1254028    0.1938454    0.1938454    0.2275710
:EIG00016:       0.3513411    0.3513411    0.3929645    0.3929645    0.6027661
:EIG00021:       0.9195332    0.9795415    1.3524071    1.4995920    1.4995920
:EIG00026:       1.5786122    1.5997363    1.5997363    1.8996961
       ********************************************************

:KPT   :      NUMBER OF K-POINTS:    32
       Insulator, EF-inconsistency corrected
:GAP  :    0.1351 Ry =     1.837 eV   (provided you have a proper k-mesh)
         Bandranges (emin - emax) and occupancy:
:BAN00009:   9   -0.169094   -0.075892  2.00000000
:BAN00010:  10   -0.126043    0.121427  2.00000000
:BAN00011:  11   -0.068958    0.134809  2.00000000
:BAN00012:  12    0.040294    0.134809  2.00000000
:BAN00013:  13    0.072143    0.193845  2.00000000
:BAN00014:  14    0.115449    0.193845  2.00000000
:BAN00015:  15    0.227571    0.352039  2.00000000
:BAN00016:  16    0.336377    0.371329  2.00000000
:BAN00017:  17    0.351341    0.394638  2.00000000
:BAN00018:  18    0.373189    0.403440  2.00000000
:BAN00019:  19    0.390302    0.467708  2.00000000
:BAN00020:  20    0.602766    0.903347  0.00000000
:BAN00021:  21    0.790154    1.079851  0.00000000
:BAN00022:  22    0.979542    1.201220  0.00000000
:BAN00023:  23    1.116936    1.355252  0.00000000
:BAN00024:  24    1.240806    1.502469  0.00000000
        Energy to separate low and high energystates:   -0.21909


:NOE  : NUMBER OF ELECTRONS          =  38.000

:FER  : F E R M I - ENERGY(TETRAH.M.)=   0.4677078448
:GMA  : POTENTIAL AND CHARGE CUT-OFF  12.00 Ry**.5




:POS001: ATOM   -1 X,Y,Z = 0.00000 0.00000 0.00000  MULT= 1  ZZ= 29.000  Cu1       

       LMMAX  7
       LM=   0 0  2 0  4 0  4 3  6 0  6 3  6 6

:CHA001: TOTAL VALENCE CHARGE INSIDE SPHERE   1 =  15.3930    (RMT=  2.0000 )
:PCS001: PARTIAL CHARGES SPHERE =  1 S,P,D,F,PZ,PXY, D-Z2,D-XY,X2Y2,D-XZ,YZ 
:QTL001: 0.2356 6.1324 9.0015 0.0175 2.0980 4.0344 0.0000 1.6125 3.6528 3.7362 0.0000 0.0000
        Q-s-low E-s-low   Q-p-low E-p-low   Q-d-low E-d-low   Q-f-low E-f-low
:EPL001:  0.0144 -1.0241    6.0000 -4.5896    0.0178 -1.0222    0.0027 -1.0224
        Q-s-hi  E-s-hi    Q-p-hi  E-p-hi    Q-d-hi  E-d-hi    Q-f-hi  E-f-hi 
:EPH001:  0.2212  0.1666    0.1324  0.1069    8.9837  0.3530    0.0149  0.0799
:VZZ001: EFG INSIDE SPHERE   1 =    -4.081700      UP TO R =   2.00000




:POS002: ATOM   -2 X,Y,Z = 0.50000 0.50000 0.50000  MULT= 1  ZZ= 13.000  Al1       

       LMMAX  7
       LM=   0 0  2 0  4 0  4 3  6 0  6 3  6 6

:CHA002: TOTAL VALENCE CHARGE INSIDE SPHERE   2 =   6.5664    (RMT=  1.8000 )
:PCS002: PARTIAL CHARGES SPHERE =  2 S,P,D,F,PZ,PXY, D-Z2,D-XY,X2Y2,D-XZ,YZ 
:QTL002: 0.2009 6.2228 0.1184 0.0198 2.0646 4.1582 0.0000 0.0087 0.0505 0.0591 0.0000 0.0000
        Q-s-low E-s-low   Q-p-low E-p-low   Q-d-low E-d-low   Q-f-low E-f-low
:EPL002:  0.0324 -1.0840    6.0088 -4.1006    0.0159 -0.9973    0.0030 -1.0179
        Q-s-hi  E-s-hi    Q-p-hi  E-p-hi    Q-d-hi  E-d-hi    Q-f-hi  E-f-hi 
:EPH002:  0.1685 -0.0730    0.2139  0.0302    0.1025  0.0825    0.0168  0.0995
:VZZ002: EFG INSIDE SPHERE   2 =     1.025666      UP TO R =   1.80000




:POS003: ATOM   -3 X,Y,Z = 0.10979 0.10979 0.10979  MULT= 2  ZZ=  8.000  O 1       

       LMMAX 12
       LM=   0 0  1 0  2 0  3 0  3 3  4 0  4 3  5 0  5 3  6 0  6 3  6 6

:CHA003: TOTAL VALENCE CHARGE INSIDE SPHERE   3 =   4.8410    (RMT=  1.4000 )
:PCS003: PARTIAL CHARGES SPHERE =  3 S,P,D,F,PZ,PXY, D-Z2,D-XY,X2Y2,D-XZ,YZ 
:QTL003: 1.4096 3.4237 0.0067 0.0007 1.1129 2.3108 0.0000 0.0014 0.0011 0.0042 0.0000 0.0000
        Q-s-low E-s-low   Q-p-low E-p-low   Q-d-low E-d-low   Q-f-low E-f-low
:EPL003:  1.3642 -1.0235    0.0061 -1.2274    0.0003 -2.5760    0.0001 -2.3991
        Q-s-hi  E-s-hi    Q-p-hi  E-p-hi    Q-d-hi  E-d-hi    Q-f-hi  E-f-hi 
:EPH003:  0.0454 -0.0160    3.4176  0.0597    0.0065  0.2215    0.0006  0.2666
:VZZ003: EFG INSIDE SPHERE   3 =     2.867340      UP TO R =   1.40000

:CHA  : TOTAL VALENCE CHARGE INSIDE UNIT CELL =      38.000000

:SUM  : SUM OF EIGENVALUES =         -52.368998756


        1.ATOM      Cu1                   5 CORE STATES
:1S 001: 1S                -649.641188690 Ry
:2S 001: 2S                 -77.365065519 Ry
:2PP001: 2P*                -67.678655162 Ry
:2P 001: 2P                 -66.172792536 Ry
:3S 001: 3S                  -7.733034316 Ry

        2.ATOM      Al1                   2 CORE STATES
:1S 002: 1S                -110.056975640 Ry
:2S 002: 2S                  -6.950942695 Ry

        3.ATOM      O 1                   1 CORE STATES
       CORE-FORCE in mRy/a.u. = |F|      Fx             Fy             Fz
:FCO003:   3.ATOM    133.502776753      0.000000000      0.000000000    133.502776753

:1S 003: 1S                 -36.842239359 Ry
:CINT001 Core Integral Atom   1   11.998525
:CINT002 Core Integral Atom   2    3.995936
:CINT003 Core Integral Atom   3    1.999999

       DENSITY AT NUCLEUS
        JATOM        VALENCE       SEMI-CORE          CORE           TOTAL
:RTO001:   1        6.668121        0.000000    22630.068248    22636.736369
:RTO002:   2        2.526661        0.000000     1486.842368     1489.369029
:RTO003:   3       15.297117        0.000000      303.917140      319.214258
     
       CHARGES OF NEW CHARGE DENSITY
:NTO   : INTERSTITIAL CHARGE =     6.358627
:NTO001: CHARGE SPHERE  1    =    27.391522
:NTO002: CHARGE SPHERE  2    =    10.562320
:NTO003: CHARGE SPHERE  3    =     6.840983

:NEC01: NUCLEAR AND ELECTRONIC CHARGE     58.00000    57.99444
     
       CHARGES OF OLD CHARGE DENSITY
:OTO   : INTERSTITIAL CHARGE =     7.041294
:OTO001: CHARGE SPHERE  1    =    27.302428
:OTO002: CHARGE SPHERE  2    =    10.804357
:OTO003: CHARGE SPHERE  3    =     6.425961

:NEC02: NUCLEAR AND ELECTRONIC CHARGE     58.00000    58.00000
     
       CONVERGENCE TEST
:DTO001: DIFFERENCE IN SPHERE  1 =  0.2884822
:DTO002: DIFFERENCE IN SPHERE  2 =  0.2239986
:DTO003: DIFFERENCE IN SPHERE  3 =  0.5053364

:DIS  :  CHARGE DISTANCE       ( 0.5053364 for atom    3 spin 1)      0.3807884
:BIG check (qbig,qrms,qtot)    0.168D+00   0.284D+00   0.381D+00
 
******************************************************
* MULTISECANT MIXING VER6 RELEASE 6.0 OPTIONS        *
* Standard Mode with controls                        *
* Regularization       1.000E-06                     *
* Trust Region Control Active                        *
* Max Number of Memory Steps    8                    *
******************************************************
 
:PLANE:  INTERSTITIAL TOTAL      1.69328 DISTAN  1.762E+01 % 
:CHARG:  CLM CHARGE   /ATOM     54.22898 DISTAN  1.191E+00 % 
:REDuction and DMIX in Broyd:    0.9333    0.1867
 
 Step History DMIX, Red, Pred, Trust, FRMS, FABS
  2  3.5000E-02  1.0000E+00  1.0000E+00  1.0000E+00
  3  8.7500E-02  1.0000E+00  1.0000E+00  1.0000E+00
  
:NORMS:  Nuclear, Spectral, Froebius, Shanno-Pua   0.2495E+01  0.2491E+01  0.2491E+01  0.3532E+00
:INFO :  Number of Memory Steps    2 Skipping    0
:INFO :  SLambda=    2.4950196  Max    2.4950196

Eigenvalues, unscaled except for SY+YY
   #     SY Real        SY Imag          SS             YY         SY+YY Real      SY+YY Imag
   1   7.064039E-01   0.000000E+00   3.222759E-01   1.999995E+00   3.762487E+00   0.000000E+00
   2   2.220446E-16   0.000000E+00  -2.775558E-17   4.816189E-06   4.888501E-06   0.000000E+00
 
:INFO :  Singular value   3.762E+00 Weight  1.0000E+00 Projections  -1.578E+02  1.900E+00
:INFO :  Singular value   4.889E-06 Weight  8.5662E-01 Projections   1.551E+02  2.213E+02
 
:DIRM :  MEMORY 2/8 RESCALE   7.16 RED 0.807 PRED 1.000 NEXT 0.668
:INFO :  Blimit    1.530E+00  1.002E+00  6.463E-01  2.589E+00
:DIRP :  |MSR1|= 9.641E-01 |PRATT|= 2.135E+00 ANGLE=   2.2 DEGREES
:DIRQ :  |MSR1|= 9.155E-01 |PRATT|= 1.937E+00 ANGLE=   5.2 DEGREES
:DIR  :  |MSR1|= 1.330E+00 |PRATT|= 2.883E+00 ANGLE=   4.1 DEGREES
:MIX  :   MSE1   REGULARIZATION: 2.00E-06  GREED: 0.097  Newton 1.00  0.46                
     
       CHARGES OF MIXED CHARGE DENSITY
:CTO   : INTERSTITIAL CHARGE =     6.714159
:CTO001: CHARGE SPHERE  1    =    27.346914
:CTO002: CHARGE SPHERE  2    =    10.693026
:CTO003: CHARGE SPHERE  3    =     6.622950

:NEC03: NUCLEAR AND ELECTRONIC CHARGE     58.00000    58.00000

PW CHANGE     H    K    L       Current     Change     Residue
:PTO001:      0    0    0  6.58233462E-02 -1.494E-03 -3.232E-03
:PTO002:     -1   -1   -1 -2.09979829E-02 -2.424E-03 -5.084E-03
:PTO003:     -2   -2   -2 -5.99963987E-03 -2.933E-03 -6.422E-03
:PTO004:     -1    0    0  1.15340212E-01  4.498E-03  9.148E-03
:PTO005:     -1   -1    0  6.10995606E-02 -3.472E-03 -8.042E-03
:PTO006:     -2   -1   -1 -6.62379253E-02 -1.123E-02 -2.480E-02
:PTO007:     -2   -2   -1 -7.44458228E-02 -8.158E-03 -1.797E-02
:PTO008:     -3   -3   -3  3.14773702E-02  1.491E-03  3.152E-03
:PTO009:     -3   -2   -2  1.77297004E-02 -2.323E-04 -7.531E-04
:PTO010:     -3   -3   -2  5.35675429E-02  7.342E-04  1.070E-03
:PTO011:     -1    0    1  4.48644812E-02 -1.095E-03 -3.046E-03
:PTO012:     -4   -4   -4 -3.91538398E-03 -1.323E-03 -3.075E-03

:ENE  : ********** TOTAL ENERGY IN Ry =        -4097.12086094

       TOTAL FORCE IN mRy/a.u. = |F|     Fx             Fy             Fz     with/without FOR in case.in2
:FOR001:   1.ATOM          0.000          0.000          0.000          0.000 partial forces
:FOR002:   2.ATOM          0.000          0.000          0.000          0.000 partial forces
:FOR003:   3.ATOM        376.377          0.000          0.000       -376.377 partial forces
       TOTAL FORCE WITH RESPECT TO GLOBAL CARTESIAN COORDINATES:
:FCA001:   1.ATOM                         0.000          0.000          0.000 partial forces
:FCA002:   2.ATOM                         0.000          0.000          0.000 partial forces
:FCA003:   3.ATOM                         0.000          0.000       -376.377 partial forces
       TOTAL FORCE WITH RESPECT TO THE GLOBAL COORDINATE SYSTEM:
:FGL001:   1.ATOM                 0.000000000     0.000000000     0.000000000 partial forces
:FGL002:   2.ATOM                 0.000000000     0.000000000     0.000000000 partial forces
:FGL003:   3.ATOM              -376.377456952  -376.377456952  -376.377456952 partial forces


            ---------
:ITE004:  4. ITERATION
            ---------

:NATO :    3 INDEPENDENT AND    4 TOTAL ATOMS IN UNITCELL
       SUBSTANCE: CuAlO2 BenkoF84                                             

       LATTICE                      = R   
:POT  : POTENTIAL OPTION EX_PBE EC_PBE VX_PBE VC_PBE
:LAT  : LATTICE CONSTANTS=  5.40508  5.40508 32.03482
:VOL  : UNIT CELL VOLUME =     270.16967
       MODE OF CALCULATION IS       = RELA
       NON-SPINPOLARIZED CALCULATION
:IFFT  : FFT-parameters:   90   90   90 Factor: 2.00
       ATOMNUMBER=  1 Cu1        VCOUL-ZERO =  0.34310E+00
:EFG001:                        EFG         =    -2.12690   *10**21  V / m**2
                               V20  TOT/SRF=    -1.84195     0.10752
                               V22  TOT/SRF=     0.00000     0.00000
                               V22M TOT/SRF=     0.00000     0.00000
                               V21  TOT/SRF=     0.00000     0.00000
                               V21M TOT/SRF=     0.00000     0.00000

              1.06345    0.00000    0.00000        1.06345    0.00000    0.00000
              0.00000    1.06345    0.00000        0.00000    1.06345    0.00000
              0.00000    0.00000   -2.12690        0.00000    0.00000   -2.12690

         MAIN DIRECTIONS OF THE EFG   1.0000  0.0000  0.0000
                                      0.0000  1.0000  0.0000
                                      0.0000  0.0000  1.0000
:ANG001:  ANGLE WITH OLD X-AXIS =         0.0

:ETA001:                         ASYMM. ETA =     0.00000


       ATOMNUMBER=  2 Al1        VCOUL-ZERO = -0.80108E-01
:EFG002:                        EFG         =     0.50865   *10**21  V / m**2
                               V20  TOT/SRF=     0.44050    -0.04199
                               V22  TOT/SRF=     0.00000     0.00000
                               V22M TOT/SRF=     0.00000     0.00000
                               V21  TOT/SRF=     0.00000     0.00000
                               V21M TOT/SRF=     0.00000     0.00000

             -0.25432    0.00000    0.00000       -0.25432    0.00000    0.00000
              0.00000   -0.25432    0.00000        0.00000   -0.25432    0.00000
              0.00000    0.00000    0.50865        0.00000    0.00000    0.50865

         MAIN DIRECTIONS OF THE EFG   1.0000  0.0000  0.0000
                                      0.0000  1.0000  0.0000
                                      0.0000  0.0000  1.0000
:ANG002:  ANGLE WITH OLD X-AXIS =         0.0

:ETA002:                         ASYMM. ETA =     0.00000


       ATOMNUMBER=  3 O 1        VCOUL-ZERO =  0.18100E+00
:EFG003:                        EFG         =     1.63658   *10**21  V / m**2
                               V20  TOT/SRF=     1.41732     0.26299
                               V22  TOT/SRF=     0.00000     0.00000
                               V22M TOT/SRF=     0.00000     0.00000
                               V21  TOT/SRF=     0.00000     0.00000
                               V21M TOT/SRF=     0.00000     0.00000

             -0.81829    0.00000    0.00000       -0.81829    0.00000    0.00000
              0.00000   -0.81829    0.00000        0.00000   -0.81829    0.00000
              0.00000    0.00000    1.63658        0.00000    0.00000    1.63658

         MAIN DIRECTIONS OF THE EFG   1.0000  0.0000  0.0000
                                      0.0000  1.0000  0.0000
                                      0.0000  0.0000  1.0000
:ANG003:  ANGLE WITH OLD X-AXIS =         0.0

:ETA003:                         ASYMM. ETA =     0.00000


     HELLMANN-FEYNMAN-FORCE IN mRy/a.u. = |F|  Fx       Fy             Fz
:FHF001:   1.ATOM      0.000000000      0.000000000      0.000000000      0.000000000

     HELLMANN-FEYNMAN-FORCE IN mRy/a.u. = |F|  Fx       Fy             Fz
:FHF002:   2.ATOM      0.000000000      0.000000000      0.000000000      0.000000000

     HELLMANN-FEYNMAN-FORCE IN mRy/a.u. = |F|  Fx       Fy             Fz
:FHF003:   3.ATOM    134.086291826      0.000000000      0.000000000   -134.086291826

:FIT001: LUSE= 13 SIGMA OF V-XC FIT FOR ATOM  1  0.6984515E-02
:FIT001: LUSE= 13 SIGMA OF V-XC FIT FOR ATOM  1  0.6984515E-02
:FIT002: LUSE= 13 SIGMA OF V-XC FIT FOR ATOM  2  0.4811347E-02
:FIT002: LUSE= 13 SIGMA OF V-XC FIT FOR ATOM  2  0.4811347E-02
:FIT003: LUSE= 13 SIGMA OF V-XC FIT FOR ATOM  3  0.9754266E-04
:FIT003: LUSE= 13 SIGMA OF V-XC FIT FOR ATOM  3  0.9754266E-04
:DEN  : DENSITY INTEGRAL  =         -1798.76297626   (Ry)
       ELS_POTENTIAL_AT Z=0 and Z=0.5:   0.00000   0.00000
       ELS_POTENTIAL_AT Y=0 and Y=0.5:   0.00000   0.00000
:VZERO:v0,v0c,v0x  -0.80348   0.00000  -0.80348 v5,v5c,v5x  -0.80348   0.00000  -0.80348
:VZERY:v0,v0c,v0x  -0.80348   0.00000  -0.80348 v5,v5c,v5x  -0.80348   0.00000  -0.80348
:VZERX:v0,v0c,v0x  -2.27994  -1.06216  -1.21778 v5,v5c,v5x  -0.10840   0.26538  -0.37378

          ATOMIC SPHERE DEPENDENT PARAMETERS FOR ATOM  Cu1       
:e__0001: OVERALL ENERGY PARAMETER IS    0.2677
          OVERALL BASIS SET ON ATOM IS LAPW
:E1_0001: E( 1)=    0.2677
             APW+lo
:E1_0001: E( 1)=   -4.5558   E(BOTTOM)=   -4.625   E(TOP)=   -4.487  1  2   172
             LOCAL ORBITAL
:E2_0001: E( 2)=    0.3579   E(BOTTOM)=    0.018   E(TOP)=    0.698  0  1   133
             APW+lo
:E0_0001: E( 0)=    0.2677
             APW+lo

          ATOMIC SPHERE DEPENDENT PARAMETERS FOR ATOM  Al1       
:e__0002: OVERALL ENERGY PARAMETER IS    0.2677
          OVERALL BASIS SET ON ATOM IS LAPW
:E1_0002: E( 1)=    0.2677
             APW+lo
:E1_0002: E( 1)=   -4.1958   E(BOTTOM)=   -4.298   E(TOP)=   -4.094  0  1   156
             LOCAL ORBITAL
:E0_0002: E( 0)=    0.2677
             APW+lo

          ATOMIC SPHERE DEPENDENT PARAMETERS FOR ATOM  O 1       
:e__0003: OVERALL ENERGY PARAMETER IS    0.2677
          OVERALL BASIS SET ON ATOM IS LAPW
:E0_0003: E( 0)=   -1.5500   E(BOTTOM)=   -2.537   E(TOP)= -200.000  1 -1   226
             APW+lo
:E0_0003: E( 0)=    0.6677
             LOCAL ORBITAL
:E1_0003: E( 1)=    0.2677
             APW+lo

       K=   0.00000   0.00000   0.00000            1
:RKM  : MATRIX SIZE   616LOs:  29  RKM= 6.98  WEIGHT= 1.00  PGR:    
       EIGENVALUES ARE:
:EIG00001:      -4.5435865   -4.5388415   -4.5388415   -4.1707424   -4.1698938
:EIG00006:      -4.1698938   -1.0016212   -0.8423720   -0.0734340    0.2269580
:EIG00011:       0.2661353    0.2661353    0.2736408    0.3587120    0.3587120
:EIG00016:       0.3858909    0.3858909    0.4535645    0.4535645    0.6699198
:EIG00021:       0.9677655    1.0561998    1.3726586    1.5333947    1.5333947
:EIG00026:       1.6390812    1.6390812    1.6465151    1.8785506    1.9559607
:EIG00031:       1.9559607
       ********************************************************

:KPT   :      NUMBER OF K-POINTS:    32
       Insulator, EF-inconsistency corrected
:GAP  :    0.1430 Ry =     1.944 eV   (provided you have a proper k-mesh)
         Bandranges (emin - emax) and occupancy:
:BAN00009:   9   -0.073434    0.047657  2.00000000
:BAN00010:  10   -0.016346    0.226958  2.00000000
:BAN00011:  11    0.050632    0.266135  2.00000000
:BAN00012:  12    0.155853    0.293548  2.00000000
:BAN00013:  13    0.198981    0.310555  2.00000000
:BAN00014:  14    0.248976    0.358712  2.00000000
:BAN00015:  15    0.305694    0.384121  2.00000000
:BAN00016:  16    0.368737    0.426671  2.00000000
:BAN00017:  17    0.385891    0.444862  2.00000000
:BAN00018:  18    0.429396    0.474369  2.00000000
:BAN00019:  19    0.440536    0.526947  2.00000000
:BAN00020:  20    0.669920    0.888636  0.00000000
:BAN00021:  21    0.849923    1.150132  0.00000000
:BAN00022:  22    1.046672    1.261403  0.00000000
:BAN00023:  23    1.144447    1.424272  0.00000000
:BAN00024:  24    1.264734    1.537544  0.00000000
        Energy to separate low and high energystates:   -0.12343


:NOE  : NUMBER OF ELECTRONS          =  38.000

:FER  : F E R M I - ENERGY(TETRAH.M.)=   0.5269472709
:GMA  : POTENTIAL AND CHARGE CUT-OFF  12.00 Ry**.5




:POS001: ATOM   -1 X,Y,Z = 0.00000 0.00000 0.00000  MULT= 1  ZZ= 29.000  Cu1       

       LMMAX  7
       LM=   0 0  2 0  4 0  4 3  6 0  6 3  6 6

:CHA001: TOTAL VALENCE CHARGE INSIDE SPHERE   1 =  15.3363    (RMT=  2.0000 )
:PCS001: PARTIAL CHARGES SPHERE =  1 S,P,D,F,PZ,PXY, D-Z2,D-XY,X2Y2,D-XZ,YZ 
:QTL001: 0.2993 6.1714 8.8419 0.0181 2.1155 4.0558 0.0000 1.5265 3.6023 3.7132 0.0000 0.0000
        Q-s-low E-s-low   Q-p-low E-p-low   Q-d-low E-d-low   Q-f-low E-f-low
:EPL001:  0.0186 -0.8672    6.0021 -4.5290    0.0211 -0.8644    0.0028 -0.8590
        Q-s-hi  E-s-hi    Q-p-hi  E-p-hi    Q-d-hi  E-d-hi    Q-f-hi  E-f-hi 
:EPH001:  0.2807  0.2371    0.1693  0.2254    8.8209  0.3913    0.0153  0.2234
:VZZ001: EFG INSIDE SPHERE   1 =    -4.764363      UP TO R =   2.00000




:POS002: ATOM   -2 X,Y,Z = 0.50000 0.50000 0.50000  MULT= 1  ZZ= 13.000  Al1       

       LMMAX  7
       LM=   0 0  2 0  4 0  4 3  6 0  6 3  6 6

:CHA002: TOTAL VALENCE CHARGE INSIDE SPHERE   2 =   6.6711    (RMT=  1.8000 )
:PCS002: PARTIAL CHARGES SPHERE =  2 S,P,D,F,PZ,PXY, D-Z2,D-XY,X2Y2,D-XZ,YZ 
:QTL002: 0.2383 6.2720 0.1359 0.0205 2.0824 4.1896 0.0000 0.0102 0.0570 0.0687 0.0000 0.0000
        Q-s-low E-s-low   Q-p-low E-p-low   Q-d-low E-d-low   Q-f-low E-f-low
:EPL002:  0.0389 -0.9341    6.0159 -4.1462    0.0173 -0.8362    0.0030 -0.8588
        Q-s-hi  E-s-hi    Q-p-hi  E-p-hi    Q-d-hi  E-d-hi    Q-f-hi  E-f-hi 
:EPH002:  0.1994  0.0475    0.2561  0.1678    0.1186  0.2256    0.0176  0.2411
:VZZ002: EFG INSIDE SPHERE   2 =     1.130213      UP TO R =   1.80000




:POS003: ATOM   -3 X,Y,Z = 0.10979 0.10979 0.10979  MULT= 2  ZZ=  8.000  O 1       

       LMMAX 12
       LM=   0 0  1 0  2 0  3 0  3 3  4 0  4 3  5 0  5 3  6 0  6 3  6 6

:CHA003: TOTAL VALENCE CHARGE INSIDE SPHERE   3 =   4.4903    (RMT=  1.4000 )
:PCS003: PARTIAL CHARGES SPHERE =  3 S,P,D,F,PZ,PXY, D-Z2,D-XY,X2Y2,D-XZ,YZ 
:QTL003: 1.3676 3.1144 0.0073 0.0008 0.9985 2.1160 0.0000 0.0015 0.0014 0.0044 0.0000 0.0000
        Q-s-low E-s-low   Q-p-low E-p-low   Q-d-low E-d-low   Q-f-low E-f-low
:EPL003:  1.3105 -0.8661    0.0051 -1.1015    0.0003 -2.3303    0.0001 -2.1887
        Q-s-hi  E-s-hi    Q-p-hi  E-p-hi    Q-d-hi  E-d-hi    Q-f-hi  E-f-hi 
:EPH003:  0.0571  0.1047    3.1093  0.2007    0.0070  0.2984    0.0007  0.3294
:VZZ003: EFG INSIDE SPHERE   3 =     3.714216      UP TO R =   1.40000

:CHA  : TOTAL VALENCE CHARGE INSIDE UNIT CELL =      38.000000

:SUM  : SUM OF EIGENVALUES =         -49.718630678


        1.ATOM      Cu1                   5 CORE STATES
:1S 001: 1S                -649.544607143 Ry
:2S 001: 2S                 -77.258626541 Ry
:2PP001: 2P*                -67.572387778 Ry
:2P 001: 2P                 -66.066503327 Ry
:3S 001: 3S                  -7.670226945 Ry

        2.ATOM      Al1                   2 CORE STATES
:1S 002: 1S                -110.130591504 Ry
:2S 002: 2S                  -7.000484359 Ry

        3.ATOM      O 1                   1 CORE STATES
       CORE-FORCE in mRy/a.u. = |F|      Fx             Fy             Fz
:FCO003:   3.ATOM     44.766414894      0.000000000      0.000000000     44.766414894

:1S 003: 1S                 -36.490302556 Ry
:CINT001 Core Integral Atom   1   11.998460
:CINT002 Core Integral Atom   2    3.996060
:CINT003 Core Integral Atom   3    1.999999

       DENSITY AT NUCLEUS
        JATOM        VALENCE       SEMI-CORE          CORE           TOTAL
:RTO001:   1        8.638993        0.000000    22628.948000    22637.586993
:RTO002:   2        3.022727        0.000000     1487.118742     1490.141469
:RTO003:   3       14.480549        0.000000      303.799754      318.280303
     
       CHARGES OF NEW CHARGE DENSITY
:NTO   : INTERSTITIAL CHARGE =     7.011980
:NTO001: CHARGE SPHERE  1    =    27.334791
:NTO002: CHARGE SPHERE  2    =    10.667147
:NTO003: CHARGE SPHERE  3    =     6.490290

:NEC01: NUCLEAR AND ELECTRONIC CHARGE     58.00000    57.99450
     
       CHARGES OF OLD CHARGE DENSITY
:OTO   : INTERSTITIAL CHARGE =     6.714159
:OTO001: CHARGE SPHERE  1    =    27.346914
:OTO002: CHARGE SPHERE  2    =    10.693026
:OTO003: CHARGE SPHERE  3    =     6.622950

:NEC02: NUCLEAR AND ELECTRONIC CHARGE     58.00000    58.00000
     
       CONVERGENCE TEST
:DTO001: DIFFERENCE IN SPHERE  1 =  0.4302832
:DTO002: DIFFERENCE IN SPHERE  2 =  0.0849932
:DTO003: DIFFERENCE IN SPHERE  3 =  0.3635857

:DIS  :  CHARGE DISTANCE       ( 0.4302832 for atom    1 spin 1)      0.3106119
:BIG check (qbig,qrms,qtot)    0.143D+00   0.239D+00   0.311D+00
 
******************************************************
* MULTISECANT MIXING VER6 RELEASE 6.0 OPTIONS        *
* Standard Mode with controls                        *
* Regularization       1.000E-06                     *
* Trust Region Control Active                        *
* Max Number of Memory Steps    8                    *
******************************************************
 
:PLANE:  INTERSTITIAL TOTAL      1.73147 DISTAN  7.783E+00 % 
:CHARG:  CLM CHARGE   /ATOM     54.27327 DISTAN  8.241E-01 % 
:REDuction and DMIX in Broyd:    0.9830    0.1966
 
 Step History DMIX, Red, Pred, Trust, FRMS, FABS
  2  3.5000E-02  1.0000E+00  1.0000E+00  1.0000E+00
  3  8.7500E-02  8.0666E-01  1.0000E+00  1.0000E+00
  4  9.6944E-02  1.0000E+00  6.6840E-01  2.5892E+00
  
:NORMS:  Nuclear, Spectral, Froebius, Shanno-Pua   0.2268E+01  0.2256E+01  0.2256E+01  0.3887E+00
:INFO :  Number of Memory Steps    3 Skipping    0
:INFO :  SLambda=    2.2683869  Max    2.2683869

Eigenvalues, unscaled except for SY+YY
   #     SY Real        SY Imag          SS             YY         SY+YY Real      SY+YY Imag
   1   1.165638E+00   0.000000E+00   5.893043E-01   2.998749E+00   5.642841E+00   0.000000E+00
   2   3.787866E-17   0.000000E+00   1.745712E-16   2.602847E-07   2.760843E-07   0.000000E+00
   3   3.781323E-04   0.000000E+00   1.335125E-04   1.250635E-03   2.134411E-03   0.000000E+00
 
:INFO :  Singular value   5.643E+00 Weight  1.0000E+00 Projections   1.551E+01 -9.176E-02
:INFO :  Singular value   2.134E-03 Weight  1.0000E+00 Projections   1.773E+01 -3.912E+01
:INFO :  Singular value   2.761E-07 Weight  8.4050E-03 Projections  -3.285E+01  1.021E+01
 
:DIRM :  MEMORY 3/8 RESCALE   7.77 RED 0.563 PRED 0.668 NEXT 0.740
:INFO :  Blimit    2.071E+00  1.006E+00  7.844E-01  3.155E+00
:DIRP :  |MSR1|= 3.610E-01 |PRATT|= 1.047E+00 ANGLE=   9.6 DEGREES
:DIRQ :  |MSR1|= 3.915E-01 |PRATT|= 1.342E+00 ANGLE=  15.0 DEGREES
:DIR  :  |MSR1|= 5.326E-01 |PRATT|= 1.702E+00 ANGLE=  13.9 DEGREES
:MIX  :   MSE1   REGULARIZATION: 3.00E-06  GREED: 0.118  Newton 1.00  0.31                
     
       CHARGES OF MIXED CHARGE DENSITY
:CTO   : INTERSTITIAL CHARGE =     6.799827
:CTO001: CHARGE SPHERE  1    =    27.350105
:CTO002: CHARGE SPHERE  2    =    10.680302
:CTO003: CHARGE SPHERE  3    =     6.584883

:NEC03: NUCLEAR AND ELECTRONIC CHARGE     58.00000    58.00000

PW CHANGE     H    K    L       Current     Change     Residue
:PTO001:      0    0    0  6.59350753E-02  1.117E-04  3.441E-04
:PTO002:     -1   -1   -1 -2.14442068E-02 -4.462E-04 -4.585E-04
:PTO003:     -2   -2   -2 -6.67621301E-03 -6.766E-04 -1.617E-03
:PTO004:     -1    0    0  1.15608873E-01  2.687E-04 -1.272E-03
:PTO005:     -1   -1    0  5.94637698E-02 -1.636E-03 -5.059E-03
:PTO006:     -2   -1   -1 -6.91719324E-02 -2.934E-03 -7.518E-03
:PTO007:     -2   -2   -1 -7.60261773E-02 -1.580E-03 -4.028E-03
:PTO008:     -3   -3   -3  3.16231747E-02  1.458E-04  3.504E-05
:PTO009:     -3   -2   -2  1.74099290E-02 -3.198E-04 -1.426E-03
:PTO010:     -3   -3   -2  5.23765137E-02 -1.191E-03 -4.265E-03
:PTO011:     -1    0    1  4.25200076E-02 -2.344E-03 -7.270E-03
:PTO012:     -4   -4   -4 -4.38607709E-03 -4.707E-04 -1.604E-03

:ENE  : ********** TOTAL ENERGY IN Ry =        -4097.06267901

       TOTAL FORCE IN mRy/a.u. = |F|     Fx             Fy             Fz     with/without FOR in case.in2
:FOR001:   1.ATOM          0.000          0.000          0.000          0.000 partial forces
:FOR002:   2.ATOM          0.000          0.000          0.000          0.000 partial forces
:FOR003:   3.ATOM         89.320          0.000          0.000        -89.320 partial forces
       TOTAL FORCE WITH RESPECT TO GLOBAL CARTESIAN COORDINATES:
:FCA001:   1.ATOM                         0.000          0.000          0.000 partial forces
:FCA002:   2.ATOM                         0.000          0.000          0.000 partial forces
:FCA003:   3.ATOM                         0.000          0.000        -89.320 partial forces
       TOTAL FORCE WITH RESPECT TO THE GLOBAL COORDINATE SYSTEM:
:FGL001:   1.ATOM                 0.000000000     0.000000000     0.000000000 partial forces
:FGL002:   2.ATOM                 0.000000000     0.000000000     0.000000000 partial forces
:FGL003:   3.ATOM               -89.319876932   -89.319876932   -89.319876932 partial forces


            ---------
:ITE005:  5. ITERATION
            ---------

:NATO :    3 INDEPENDENT AND    4 TOTAL ATOMS IN UNITCELL
       SUBSTANCE: CuAlO2 BenkoF84                                             

       LATTICE                      = R   
:POT  : POTENTIAL OPTION EX_PBE EC_PBE VX_PBE VC_PBE
:LAT  : LATTICE CONSTANTS=  5.40508  5.40508 32.03482
:VOL  : UNIT CELL VOLUME =     270.16967
       MODE OF CALCULATION IS       = RELA
       NON-SPINPOLARIZED CALCULATION
:IFFT  : FFT-parameters:   90   90   90 Factor: 2.00
       ATOMNUMBER=  1 Cu1        VCOUL-ZERO =  0.35500E+00
:EFG001:                        EFG         =    -3.10297   *10**21  V / m**2
                               V20  TOT/SRF=    -2.68725     0.13930
                               V22  TOT/SRF=     0.00000     0.00000
                               V22M TOT/SRF=     0.00000     0.00000
                               V21  TOT/SRF=     0.00000     0.00000
                               V21M TOT/SRF=     0.00000     0.00000

              1.55148    0.00000    0.00000        1.55148    0.00000    0.00000
              0.00000    1.55148    0.00000        0.00000    1.55148    0.00000
              0.00000    0.00000   -3.10297        0.00000    0.00000   -3.10297

         MAIN DIRECTIONS OF THE EFG   1.0000  0.0000  0.0000
                                      0.0000  1.0000  0.0000
                                      0.0000  0.0000  1.0000
:ANG001:  ANGLE WITH OLD X-AXIS =         0.0

:ETA001:                         ASYMM. ETA =     0.00000


       ATOMNUMBER=  2 Al1        VCOUL-ZERO = -0.81409E-01
:EFG002:                        EFG         =     0.78897   *10**21  V / m**2
                               V20  TOT/SRF=     0.68327    -0.03626
                               V22  TOT/SRF=     0.00000     0.00000
                               V22M TOT/SRF=     0.00000     0.00000
                               V21  TOT/SRF=     0.00000     0.00000
                               V21M TOT/SRF=     0.00000     0.00000

             -0.39448    0.00000    0.00000       -0.39448    0.00000    0.00000
              0.00000   -0.39448    0.00000        0.00000   -0.39448    0.00000
              0.00000    0.00000    0.78897        0.00000    0.00000    0.78897

         MAIN DIRECTIONS OF THE EFG   1.0000  0.0000  0.0000
                                      0.0000  1.0000  0.0000
                                      0.0000  0.0000  1.0000
:ANG002:  ANGLE WITH OLD X-AXIS =         0.0

:ETA002:                         ASYMM. ETA =     0.00000


       ATOMNUMBER=  3 O 1        VCOUL-ZERO =  0.17655E+00
:EFG003:                        EFG         =     2.35592   *10**21  V / m**2
                               V20  TOT/SRF=     2.04028     0.27824
                               V22  TOT/SRF=     0.00000     0.00000
                               V22M TOT/SRF=     0.00000     0.00000
                               V21  TOT/SRF=     0.00000     0.00000
                               V21M TOT/SRF=     0.00000     0.00000

             -1.17796    0.00000    0.00000       -1.17796    0.00000    0.00000
              0.00000   -1.17796    0.00000        0.00000   -1.17796    0.00000
              0.00000    0.00000    2.35592        0.00000    0.00000    2.35592

         MAIN DIRECTIONS OF THE EFG   1.0000  0.0000  0.0000
                                      0.0000  1.0000  0.0000
                                      0.0000  0.0000  1.0000
:ANG003:  ANGLE WITH OLD X-AXIS =         0.0

:ETA003:                         ASYMM. ETA =     0.00000


     HELLMANN-FEYNMAN-FORCE IN mRy/a.u. = |F|  Fx       Fy             Fz
:FHF001:   1.ATOM      0.000000000      0.000000000      0.000000000      0.000000000

     HELLMANN-FEYNMAN-FORCE IN mRy/a.u. = |F|  Fx       Fy             Fz
:FHF002:   2.ATOM      0.000000000      0.000000000      0.000000000      0.000000000

     HELLMANN-FEYNMAN-FORCE IN mRy/a.u. = |F|  Fx       Fy             Fz
:FHF003:   3.ATOM     96.753623288      0.000000000      0.000000000    -96.753623288

:FIT001: LUSE= 13 SIGMA OF V-XC FIT FOR ATOM  1  0.7128094E-02
:FIT001: LUSE= 13 SIGMA OF V-XC FIT FOR ATOM  1  0.7128094E-02
:FIT002: LUSE= 13 SIGMA OF V-XC FIT FOR ATOM  2  0.4901083E-02
:FIT002: LUSE= 13 SIGMA OF V-XC FIT FOR ATOM  2  0.4901083E-02
:FIT003: LUSE= 13 SIGMA OF V-XC FIT FOR ATOM  3  0.1174040E-03
:FIT003: LUSE= 13 SIGMA OF V-XC FIT FOR ATOM  3  0.1174040E-03
:DEN  : DENSITY INTEGRAL  =         -1796.33640844   (Ry)
       ELS_POTENTIAL_AT Z=0 and Z=0.5:   0.00000   0.00000
       ELS_POTENTIAL_AT Y=0 and Y=0.5:   0.00000   0.00000
:VZERO:v0,v0c,v0x  -0.80264   0.00000  -0.80264 v5,v5c,v5x  -0.80264   0.00000  -0.80264
:VZERY:v0,v0c,v0x  -0.80264   0.00000  -0.80264 v5,v5c,v5x  -0.80264   0.00000  -0.80264
:VZERX:v0,v0c,v0x  -2.29636  -1.08134  -1.21501 v5,v5c,v5x  -0.08497   0.27729  -0.36225

          ATOMIC SPHERE DEPENDENT PARAMETERS FOR ATOM  Cu1       
:e__0001: OVERALL ENERGY PARAMETER IS    0.3269
          OVERALL BASIS SET ON ATOM IS LAPW
:E1_0001: E( 1)=    0.3269
             APW+lo
:E1_0001: E( 1)=   -4.5988   E(BOTTOM)=   -4.666   E(TOP)=   -4.531  1  2   176
             LOCAL ORBITAL
:E2_0001: E( 2)=    0.3239   E(BOTTOM)=   -0.007   E(TOP)=    0.655  0  1   127
             APW+lo
:E0_0001: E( 0)=    0.3269
             APW+lo

          ATOMIC SPHERE DEPENDENT PARAMETERS FOR ATOM  Al1       
:e__0002: OVERALL ENERGY PARAMETER IS    0.3269
          OVERALL BASIS SET ON ATOM IS LAPW
:E1_0002: E( 1)=    0.3269
             APW+lo
:E1_0002: E( 1)=   -4.1916   E(BOTTOM)=   -4.294   E(TOP)=   -4.089  0  1   160
             LOCAL ORBITAL
:E0_0002: E( 0)=    0.3269
             APW+lo

          ATOMIC SPHERE DEPENDENT PARAMETERS FOR ATOM  O 1       
:e__0003: OVERALL ENERGY PARAMETER IS    0.3269
          OVERALL BASIS SET ON ATOM IS LAPW
:E0_0003: E( 0)=   -1.5500   E(BOTTOM)=   -2.561   E(TOP)= -200.000  1 -1   235
             APW+lo
:E0_0003: E( 0)=    0.7269
             LOCAL ORBITAL
:E1_0003: E( 1)=    0.3269
             APW+lo

       K=   0.00000   0.00000   0.00000            1
:RKM  : MATRIX SIZE   616LOs:  29  RKM= 6.98  WEIGHT= 1.00  PGR:    
       EIGENVALUES ARE:
:EIG00001:      -4.5905139   -4.5804699   -4.5804699   -4.1667108   -4.1655664
:EIG00006:      -4.1655664   -1.0211184   -0.8657987   -0.0879642    0.2146381
:EIG00011:       0.2409547    0.2409547    0.2512669    0.3328688    0.3328688
:EIG00016:       0.3564300    0.3564300    0.4190457    0.4190457    0.6438049
:EIG00021:       0.9625276    1.0464159    1.3726712    1.5321864    1.5321864
:EIG00026:       1.6371670    1.6371670    1.6379484    1.8876953    1.9559967
:EIG00031:       1.9559967
       ********************************************************

:KPT   :      NUMBER OF K-POINTS:    32
       Insulator, EF-inconsistency corrected
:GAP  :    0.1510 Ry =     2.053 eV   (provided you have a proper k-mesh)
         Bandranges (emin - emax) and occupancy:
:BAN00009:   9   -0.087964    0.028662  2.00000000
:BAN00010:  10   -0.033642    0.214638  2.00000000
:BAN00011:  11    0.033423    0.240955  2.00000000
:BAN00012:  12    0.137629    0.269237  2.00000000
:BAN00013:  13    0.175384    0.284553  2.00000000
:BAN00014:  14    0.225698    0.332869  2.00000000
:BAN00015:  15    0.283203    0.356959  2.00000000
:BAN00016:  16    0.341163    0.395167  2.00000000
:BAN00017:  17    0.356430    0.411800  2.00000000
:BAN00018:  18    0.396303    0.440364  2.00000000
:BAN00019:  19    0.406300    0.492821  2.00000000
:BAN00020:  20    0.643805    0.888555  0.00000000
:BAN00021:  21    0.844653    1.144075  0.00000000
:BAN00022:  22    1.041894    1.256414  0.00000000
:BAN00023:  23    1.142434    1.414876  0.00000000
:BAN00024:  24    1.262683    1.535804  0.00000000
        Energy to separate low and high energystates:   -0.13796


:NOE  : NUMBER OF ELECTRONS          =  38.000

:FER  : F E R M I - ENERGY(TETRAH.M.)=   0.4928214559
:GMA  : POTENTIAL AND CHARGE CUT-OFF  12.00 Ry**.5




:POS001: ATOM   -1 X,Y,Z = 0.00000 0.00000 0.00000  MULT= 1  ZZ= 29.000  Cu1       

       LMMAX  7
       LM=   0 0  2 0  4 0  4 3  6 0  6 3  6 6

:CHA001: TOTAL VALENCE CHARGE INSIDE SPHERE   1 =  15.4201    (RMT=  2.0000 )
:PCS001: PARTIAL CHARGES SPHERE =  1 S,P,D,F,PZ,PXY, D-Z2,D-XY,X2Y2,D-XZ,YZ 
:QTL001: 0.2839 6.1608 8.9517 0.0180 2.1128 4.0480 0.0000 1.5853 3.6339 3.7325 0.0000 0.0000
        Q-s-low E-s-low   Q-p-low E-p-low   Q-d-low E-d-low   Q-f-low E-f-low
:EPL001:  0.0181 -0.8906    6.0024 -4.5724    0.0212 -0.8879    0.0028 -0.8837
        Q-s-hi  E-s-hi    Q-p-hi  E-p-hi    Q-d-hi  E-d-hi    Q-f-hi  E-f-hi 
:EPH001:  0.2658  0.2196    0.1584  0.1993    8.9305  0.3601    0.0152  0.1977
:VZZ001: EFG INSIDE SPHERE   1 =    -6.412514      UP TO R =   2.00000




:POS002: ATOM   -2 X,Y,Z = 0.50000 0.50000 0.50000  MULT= 1  ZZ= 13.000  Al1       

       LMMAX  7
       LM=   0 0  2 0  4 0  4 3  6 0  6 3  6 6

:CHA002: TOTAL VALENCE CHARGE INSIDE SPHERE   2 =   6.6505    (RMT=  1.8000 )
:PCS002: PARTIAL CHARGES SPHERE =  2 S,P,D,F,PZ,PXY, D-Z2,D-XY,X2Y2,D-XZ,YZ 
:QTL002: 0.2311 6.2622 0.1324 0.0204 2.0790 4.1832 0.0000 0.0098 0.0557 0.0669 0.0000 0.0000
        Q-s-low E-s-low   Q-p-low E-p-low   Q-d-low E-d-low   Q-f-low E-f-low
:EPL002:  0.0375 -0.9555    6.0144 -4.1429    0.0169 -0.8603    0.0030 -0.8825
        Q-s-hi  E-s-hi    Q-p-hi  E-p-hi    Q-d-hi  E-d-hi    Q-f-hi  E-f-hi 
:EPH002:  0.1936  0.0286    0.2478  0.1464    0.1155  0.2033    0.0174  0.2189
:VZZ002: EFG INSIDE SPHERE   2 =     1.150901      UP TO R =   1.80000




:POS003: ATOM   -3 X,Y,Z = 0.10979 0.10979 0.10979  MULT= 2  ZZ=  8.000  O 1       

       LMMAX 12
       LM=   0 0  1 0  2 0  3 0  3 3  4 0  4 3  5 0  5 3  6 0  6 3  6 6

:CHA003: TOTAL VALENCE CHARGE INSIDE SPHERE   3 =   4.5518    (RMT=  1.4000 )
:PCS003: PARTIAL CHARGES SPHERE =  3 S,P,D,F,PZ,PXY, D-Z2,D-XY,X2Y2,D-XZ,YZ 
:QTL003: 1.3748 3.1691 0.0069 0.0008 1.0177 2.1514 0.0000 0.0015 0.0013 0.0041 0.0000 0.0000
        Q-s-low E-s-low   Q-p-low E-p-low   Q-d-low E-d-low   Q-f-low E-f-low
:EPL003:  1.3208 -0.8893    0.0048 -1.1356    0.0003 -2.3710    0.0001 -2.2142
        Q-s-hi  E-s-hi    Q-p-hi  E-p-hi    Q-d-hi  E-d-hi    Q-f-hi  E-f-hi 
:EPH003:  0.0541  0.0876    3.1643  0.1789    0.0066  0.2703    0.0007  0.3000
:VZZ003: EFG INSIDE SPHERE   3 =     3.652028      UP TO R =   1.40000

:CHA  : TOTAL VALENCE CHARGE INSIDE UNIT CELL =      38.000000

:SUM  : SUM OF EIGENVALUES =         -50.588489682


        1.ATOM      Cu1                   5 CORE STATES
:1S 001: 1S                -649.669931842 Ry
:2S 001: 2S                 -77.366764429 Ry
:2PP001: 2P*                -67.683860412 Ry
:2P 001: 2P                 -66.177606896 Ry
:3S 001: 3S                  -7.716286778 Ry

        2.ATOM      Al1                   2 CORE STATES
:1S 002: 1S                -110.111110001 Ry
:2S 002: 2S                  -6.997474544 Ry

        3.ATOM      O 1                   1 CORE STATES
       CORE-FORCE in mRy/a.u. = |F|      Fx             Fy             Fz
:FCO003:   3.ATOM     17.668485381      0.000000000      0.000000000     17.668485381

:1S 003: 1S                 -36.580394626 Ry
:CINT001 Core Integral Atom   1   11.998501
:CINT002 Core Integral Atom   2    3.996056
:CINT003 Core Integral Atom   3    1.999999

       DENSITY AT NUCLEUS
        JATOM        VALENCE       SEMI-CORE          CORE           TOTAL
:RTO001:   1        8.136106        0.000000    22630.549323    22638.685429
:RTO002:   2        2.924073        0.000000     1487.022194     1489.946267
:RTO003:   3       14.641119        0.000000      303.899125      318.540244
     
       CHARGES OF NEW CHARGE DENSITY
:NTO   : INTERSTITIAL CHARGE =     6.825893
:NTO001: CHARGE SPHERE  1    =    27.418570
:NTO002: CHARGE SPHERE  2    =    10.646534
:NTO003: CHARGE SPHERE  3    =     6.551769

:NEC01: NUCLEAR AND ELECTRONIC CHARGE     58.00000    57.99453
     
       CHARGES OF OLD CHARGE DENSITY
:OTO   : INTERSTITIAL CHARGE =     6.799827
:OTO001: CHARGE SPHERE  1    =    27.350105
:OTO002: CHARGE SPHERE  2    =    10.680302
:OTO003: CHARGE SPHERE  3    =     6.584883

:NEC02: NUCLEAR AND ELECTRONIC CHARGE     58.00000    58.00000
     
       CONVERGENCE TEST
:DTO001: DIFFERENCE IN SPHERE  1 =  0.0749409
:DTO002: DIFFERENCE IN SPHERE  2 =  0.0496844
:DTO003: DIFFERENCE IN SPHERE  3 =  0.1840624

:DIS  :  CHARGE DISTANCE       ( 0.1840624 for atom    3 spin 1)      0.1231875
:BIG check (qbig,qrms,qtot)    0.614D-01   0.974D-01   0.123D+00
 
******************************************************
* MULTISECANT MIXING VER6 RELEASE 6.0 OPTIONS        *
* Standard Mode with controls                        *
* Regularization       1.000E-06                     *
* Trust Region Control Active                        *
* Max Number of Memory Steps    8                    *
******************************************************
 
:PLANE:  INTERSTITIAL TOTAL      1.73498 DISTAN  5.095E+00 % 
:CHARG:  CLM CHARGE   /ATOM     54.23875 DISTAN  3.628E-01 % 
 
 Step History DMIX, Red, Pred, Trust, FRMS, FABS
  2  3.5000E-02  1.0000E+00  1.0000E+00  1.0000E+00
  3  8.7500E-02  8.0666E-01  1.0000E+00  1.0000E+00
  4  9.6944E-02  5.6342E-01  6.6840E-01  2.5892E+00
  5  1.1766E-01  1.0000E+00  7.4011E-01  3.1550E+00
  
:NORMS:  Nuclear, Spectral, Froebius, Shanno-Pua   0.1886E+01  0.1713E+01  0.1802E+01  0.4495E+00
:INFO :  Number of Memory Steps    4 Skipping    0
:INFO :  SLambda=    1.8856158  Max    1.8856158

Eigenvalues, unscaled except for SY+YY
   #     SY Real        SY Imag          SS             YY         SY+YY Real      SY+YY Imag
   1   1.478999E+00   0.000000E+00   1.068738E+00   3.135197E+00   5.814006E+00   0.000000E+00
   2   4.163264E-01   0.000000E+00   1.629528E-01   8.645312E-01   1.759528E+00   0.000000E+00
   3  -6.580325E-17   0.000000E+00  -4.513601E-16   3.319180E-07   3.367627E-07   0.000000E+00
   4   6.349330E-05   0.000000E+00   1.372034E-05   2.715117E-04   4.427710E-04   0.000000E+00
 
:INFO :  Singular value   5.817E+00 Weight  1.0000E+00 Projections  -2.526E+01  2.087E-01
:INFO :  Singular value   1.759E+00 Weight  1.0000E+00 Projections  -6.860E+00  7.105E-01
:INFO :  Singular value   4.428E-04 Weight  9.9995E-01 Projections   3.026E+01 -4.012E+01
:INFO :  Singular value   3.368E-07 Weight  1.1406E-02 Projections  -5.378E+00 -4.420E+00
 
:DIRM :  MEMORY 4/8 RESCALE   7.54 RED 0.529 PRED 0.740 NEXT 0.416
:INFO :  Blimit    2.849E+00  1.101E+00  1.000E+00  4.404E+00
:DIRP :  |MSR1|= 7.590E-01 |PRATT|= 6.661E-01 ANGLE=  13.5 DEGREES
:DIRQ :  |MSR1|= 5.280E-01 |PRATT|= 5.903E-01 ANGLE=  32.6 DEGREES
:DIR  :  |MSR1|= 9.245E-01 |PRATT|= 8.901E-01 ANGLE=  23.6 DEGREES
:MIX  :   MSE1   REGULARIZATION: 3.14E-06  GREED: 0.153  Newton 1.00  1.04                
     
       CHARGES OF MIXED CHARGE DENSITY
:CTO   : INTERSTITIAL CHARGE =     6.800026
:CTO001: CHARGE SPHERE  1    =    27.390965
:CTO002: CHARGE SPHERE  2    =    10.628820
:CTO003: CHARGE SPHERE  3    =     6.590095

:NEC03: NUCLEAR AND ELECTRONIC CHARGE     58.00000    58.00000

[...]
:PTO001:      0    0    0  6.52656360E-02 -9.207E-14  2.917E-12
:PTO002:     -1   -1   -1 -2.24075529E-02  6.905E-12  9.897E-11
:PTO003:     -2   -2   -2 -8.28040293E-03 -3.134E-11 -7.784E-11
:PTO004:     -1    0    0  1.15215326E-01  5.645E-11  9.217E-11
:PTO005:     -1   -1    0  5.61472021E-02  1.661E-12  2.833E-12
:PTO006:     -2   -1   -1 -7.51534781E-02 -8.013E-11 -6.470E-11
:PTO007:     -2   -2   -1 -7.99766227E-02 -8.137E-11 -6.314E-11
:PTO008:     -3   -3   -3  3.17944776E-02  1.147E-11 -3.805E-12
:PTO009:     -3   -2   -2  1.62776897E-02 -2.184E-11 -5.196E-11
:PTO010:     -3   -3   -2  5.01536391E-02  1.779E-11  1.125E-11
:PTO011:     -1    0    1  3.87710133E-02  1.016E-11  6.064E-11
:PTO012:     -4   -4   -4 -5.42164406E-03 -1.212E-11 -4.504E-11

:ENE  : ********** TOTAL ENERGY IN Ry =        -4097.04478307

       TOTAL FORCE IN mRy/a.u. = |F|     Fx             Fy             Fz     with/without FOR in case.in2
:FOR001:   1.ATOM          0.000          0.000          0.000          0.000 partial forces
:FOR002:   2.ATOM          0.000          0.000          0.000          0.000 partial forces
:FOR003:   3.ATOM          6.498          0.000          0.000         -6.498 partial forces
       TOTAL FORCE WITH RESPECT TO GLOBAL CARTESIAN COORDINATES:
:FCA001:   1.ATOM                         0.000          0.000          0.000 partial forces
:FCA002:   2.ATOM                         0.000          0.000          0.000 partial forces
:FCA003:   3.ATOM                         0.000          0.000         -6.498 partial forces
       TOTAL FORCE WITH RESPECT TO THE GLOBAL COORDINATE SYSTEM:
:FGL001:   1.ATOM                 0.000000000     0.000000000     0.000000000 partial forces
:FGL002:   2.ATOM                 0.000000000     0.000000000     0.000000000 partial forces
:FGL003:   3.ATOM                -6.497522235    -6.497522235    -6.497522235 partial forces


            ---------
:ITE023: 23. ITERATION
            ---------

:NATO :    3 INDEPENDENT AND    4 TOTAL ATOMS IN UNITCELL
       SUBSTANCE: CuAlO2 BenkoF84                                             

       LATTICE                      = R   
:POT  : POTENTIAL OPTION EX_PBE EC_PBE VX_PBE VC_PBE
:LAT  : LATTICE CONSTANTS=  5.40508  5.40508 32.03482
:VOL  : UNIT CELL VOLUME =     270.16967
       MODE OF CALCULATION IS       = RELA
       NON-SPINPOLARIZED CALCULATION
:IFFT  : FFT-parameters:   90   90   90 Factor: 2.00
       ATOMNUMBER=  1 Cu1        VCOUL-ZERO =  0.37117E+00
:EFG001:                        EFG         =    -5.35718   *10**21  V / m**2
                               V20  TOT/SRF=    -4.63945     0.14973
                               V22  TOT/SRF=     0.00000     0.00000
                               V22M TOT/SRF=     0.00000     0.00000
                               V21  TOT/SRF=     0.00000     0.00000
                               V21M TOT/SRF=     0.00000     0.00000

              2.67859    0.00000    0.00000        2.67859    0.00000    0.00000
              0.00000    2.67859    0.00000        0.00000    2.67859    0.00000
              0.00000    0.00000   -5.35718        0.00000    0.00000   -5.35718

         MAIN DIRECTIONS OF THE EFG   1.0000  0.0000  0.0000
                                      0.0000  1.0000  0.0000
                                      0.0000  0.0000  1.0000
:ANG001:  ANGLE WITH OLD X-AXIS =         0.0

:ETA001:                         ASYMM. ETA =     0.00000


       ATOMNUMBER=  2 Al1        VCOUL-ZERO = -0.96094E-01
:EFG002:                        EFG         =     1.10250   *10**21  V / m**2
                               V20  TOT/SRF=     0.95479    -0.03159
                               V22  TOT/SRF=     0.00000     0.00000
                               V22M TOT/SRF=     0.00000     0.00000
                               V21  TOT/SRF=     0.00000     0.00000
                               V21M TOT/SRF=     0.00000     0.00000

             -0.55125    0.00000    0.00000       -0.55125    0.00000    0.00000
              0.00000   -0.55125    0.00000        0.00000   -0.55125    0.00000
              0.00000    0.00000    1.10250        0.00000    0.00000    1.10250

         MAIN DIRECTIONS OF THE EFG   1.0000  0.0000  0.0000
                                      0.0000  1.0000  0.0000
                                      0.0000  0.0000  1.0000
:ANG002:  ANGLE WITH OLD X-AXIS =         0.0

:ETA002:                         ASYMM. ETA =     0.00000


       ATOMNUMBER=  3 O 1        VCOUL-ZERO =  0.19014E+00
:EFG003:                        EFG         =     3.54878   *10**21  V / m**2
                               V20  TOT/SRF=     3.07333     0.29299
                               V22  TOT/SRF=     0.00000     0.00000
                               V22M TOT/SRF=     0.00000     0.00000
                               V21  TOT/SRF=     0.00000     0.00000
                               V21M TOT/SRF=     0.00000     0.00000

             -1.77439    0.00000    0.00000       -1.77439    0.00000    0.00000
              0.00000   -1.77439    0.00000        0.00000   -1.77439    0.00000
              0.00000    0.00000    3.54878        0.00000    0.00000    3.54878

         MAIN DIRECTIONS OF THE EFG   1.0000  0.0000  0.0000
                                      0.0000  1.0000  0.0000
                                      0.0000  0.0000  1.0000
:ANG003:  ANGLE WITH OLD X-AXIS =         0.0

:ETA003:                         ASYMM. ETA =     0.00000


     HELLMANN-FEYNMAN-FORCE IN mRy/a.u. = |F|  Fx       Fy             Fz
:FHF001:   1.ATOM      0.000000000      0.000000000      0.000000000      0.000000000

     HELLMANN-FEYNMAN-FORCE IN mRy/a.u. = |F|  Fx       Fy             Fz
:FHF002:   2.ATOM      0.000000000      0.000000000      0.000000000      0.000000000

     HELLMANN-FEYNMAN-FORCE IN mRy/a.u. = |F|  Fx       Fy             Fz
:FHF003:   3.ATOM     11.782336596      0.000000000      0.000000000    -11.782336596

:FIT001: LUSE= 13 SIGMA OF V-XC FIT FOR ATOM  1  0.7019525E-02
:FIT001: LUSE= 13 SIGMA OF V-XC FIT FOR ATOM  1  0.7019525E-02
:FIT002: LUSE= 13 SIGMA OF V-XC FIT FOR ATOM  2  0.8278466E-02
:FIT002: LUSE= 13 SIGMA OF V-XC FIT FOR ATOM  2  0.8278466E-02
:FIT003: LUSE= 13 SIGMA OF V-XC FIT FOR ATOM  3  0.2407187E-03
:FIT003: LUSE= 13 SIGMA OF V-XC FIT FOR ATOM  3  0.2407187E-03
:DEN  : DENSITY INTEGRAL  =         -1796.13032705   (Ry)
       ELS_POTENTIAL_AT Z=0 and Z=0.5:   0.00000   0.00000
       ELS_POTENTIAL_AT Y=0 and Y=0.5:   0.00000   0.00000
:VZERO:v0,v0c,v0x  -0.79388   0.00000  -0.79388 v5,v5c,v5x  -0.79388   0.00000  -0.79388
:VZERY:v0,v0c,v0x  -0.79388   0.00000  -0.79388 v5,v5c,v5x  -0.79388   0.00000  -0.79388
:VZERX:v0,v0c,v0x  -2.25391  -1.06571  -1.18821 v5,v5c,v5x  -0.07038   0.25842  -0.32880

          ATOMIC SPHERE DEPENDENT PARAMETERS FOR ATOM  Cu1       
:e__0001: OVERALL ENERGY PARAMETER IS    0.3089
          OVERALL BASIS SET ON ATOM IS LAPW
:E1_0001: E( 1)=    0.3089
             APW+lo
:E1_0001: E( 1)=   -4.5738   E(BOTTOM)=   -4.641   E(TOP)=   -4.506  1  2   181
             LOCAL ORBITAL
:E2_0001: E( 2)=    0.3478   E(BOTTOM)=    0.015   E(TOP)=    0.680  0  1   135
             APW+lo
:E0_0001: E( 0)=    0.3089
             APW+lo

          ATOMIC SPHERE DEPENDENT PARAMETERS FOR ATOM  Al1       
:e__0002: OVERALL ENERGY PARAMETER IS    0.3089
          OVERALL BASIS SET ON ATOM IS LAPW
:E1_0002: E( 1)=    0.3089
             APW+lo
:E1_0002: E( 1)=   -4.2182   E(BOTTOM)=   -4.320   E(TOP)=   -4.116  0  1   161
             LOCAL ORBITAL
:E0_0002: E( 0)=    0.3089
             APW+lo

          ATOMIC SPHERE DEPENDENT PARAMETERS FOR ATOM  O 1       
:e__0003: OVERALL ENERGY PARAMETER IS    0.3089
          OVERALL BASIS SET ON ATOM IS LAPW
:E0_0003: E( 0)=   -1.5500   E(BOTTOM)=   -2.574   E(TOP)= -200.000  1 -1   232
             APW+lo
:E0_0003: E( 0)=    0.7089
             LOCAL ORBITAL
:E1_0003: E( 1)=    0.3089
             APW+lo

       K=   0.00000   0.00000   0.00000            1
:RKM  : MATRIX SIZE   616LOs:  29  RKM= 6.98  WEIGHT= 1.00  PGR:    
       EIGENVALUES ARE:
:EIG00001:      -4.5690310   -4.5536762   -4.5536762   -4.1936948   -4.1923177
:EIG00006:      -4.1923177   -1.0325597   -0.8779403   -0.0929120    0.2310339
:EIG00011:       0.2320814    0.2320814    0.2400010    0.3176948    0.3176948
:EIG00016:       0.3817402    0.3817402    0.4359288    0.4359288    0.6511091
:EIG00021:       0.9616608    1.0422097    1.3765585    1.5252665    1.5252665
:EIG00026:       1.6332625    1.6332625    1.6339195    1.8975290    1.9690335
:EIG00031:       1.9690335
       ********************************************************

:KPT   :      NUMBER OF K-POINTS:    32
       Insulator, EF-inconsistency corrected
:GAP  :    0.1422 Ry =     1.933 eV   (provided you have a proper k-mesh)
         Bandranges (emin - emax) and occupancy:
:BAN00009:   9   -0.092912    0.017517  2.00000000
:BAN00010:  10   -0.040835    0.231034  2.00000000
:BAN00011:  11    0.023656    0.245137  2.00000000
:BAN00012:  12    0.130412    0.254510  2.00000000
:BAN00013:  13    0.170166    0.274260  2.00000000
:BAN00014:  14    0.218791    0.317695  2.00000000
:BAN00015:  15    0.281055    0.380620  2.00000000
:BAN00016:  16    0.365275    0.412717  2.00000000
:BAN00017:  17    0.381740    0.437876  2.00000000
:BAN00018:  18    0.414219    0.451908  2.00000000
:BAN00019:  19    0.424974    0.508945  2.00000000
:BAN00020:  20    0.651109    0.901318  0.00000000
:BAN00021:  21    0.843510    1.144525  0.00000000
:BAN00022:  22    1.039091    1.253645  0.00000000
:BAN00023:  23    1.142277    1.411475  0.00000000
:BAN00024:  24    1.268462    1.528969  0.00000000
        Energy to separate low and high energystates:   -0.14291


:NOE  : NUMBER OF ELECTRONS          =  38.000

:FER  : F E R M I - ENERGY(TETRAH.M.)=   0.5089446601
:GMA  : POTENTIAL AND CHARGE CUT-OFF  12.00 Ry**.5




:POS001: ATOM   -1 X,Y,Z = 0.00000 0.00000 0.00000  MULT= 1  ZZ= 29.000  Cu1       

       LMMAX  7
       LM=   0 0  2 0  4 0  4 3  6 0  6 3  6 6

:CHA001: TOTAL VALENCE CHARGE INSIDE SPHERE   1 =  15.3739    (RMT=  2.0000 )
:PCS001: PARTIAL CHARGES SPHERE =  1 S,P,D,F,PZ,PXY, D-Z2,D-XY,X2Y2,D-XZ,YZ 
:QTL001: 0.2760 6.1567 8.9174 0.0179 2.1095 4.0472 0.0000 1.5694 3.6220 3.7261 0.0000 0.0000
        Q-s-low E-s-low   Q-p-low E-p-low   Q-d-low E-d-low   Q-f-low E-f-low
:EPL001:  0.0174 -0.9029    6.0018 -4.5478    0.0204 -0.9004    0.0028 -0.8976
        Q-s-hi  E-s-hi    Q-p-hi  E-p-hi    Q-d-hi  E-d-hi    Q-f-hi  E-f-hi 
:EPH001:  0.2586  0.2231    0.1549  0.1970    8.8970  0.3830    0.0152  0.1879
:VZZ001: EFG INSIDE SPHERE   1 =    -5.611785      UP TO R =   2.00000




:POS002: ATOM   -2 X,Y,Z = 0.50000 0.50000 0.50000  MULT= 1  ZZ= 13.000  Al1       

       LMMAX  7
       LM=   0 0  2 0  4 0  4 3  6 0  6 3  6 6

:CHA002: TOTAL VALENCE CHARGE INSIDE SPHERE   2 =   6.6491    (RMT=  1.8000 )
:PCS002: PARTIAL CHARGES SPHERE =  2 S,P,D,F,PZ,PXY, D-Z2,D-XY,X2Y2,D-XZ,YZ 
:QTL002: 0.2305 6.2613 0.1323 0.0205 2.0784 4.1829 0.0000 0.0097 0.0557 0.0668 0.0000 0.0000
        Q-s-low E-s-low   Q-p-low E-p-low   Q-d-low E-d-low   Q-f-low E-f-low
:EPL002:  0.0374 -0.9676    6.0146 -4.1697    0.0170 -0.8730    0.0030 -0.8953
        Q-s-hi  E-s-hi    Q-p-hi  E-p-hi    Q-d-hi  E-d-hi    Q-f-hi  E-f-hi 
:EPH002:  0.1931  0.0181    0.2467  0.1349    0.1153  0.1918    0.0175  0.2073
:VZZ002: EFG INSIDE SPHERE   2 =     1.204885      UP TO R =   1.80000




:POS003: ATOM   -3 X,Y,Z = 0.10979 0.10979 0.10979  MULT= 2  ZZ=  8.000  O 1       

       LMMAX 12
       LM=   0 0  1 0  2 0  3 0  3 3  4 0  4 3  5 0  5 3  6 0  6 3  6 6

:CHA003: TOTAL VALENCE CHARGE INSIDE SPHERE   3 =   4.5898    (RMT=  1.4000 )
:PCS003: PARTIAL CHARGES SPHERE =  3 S,P,D,F,PZ,PXY, D-Z2,D-XY,X2Y2,D-XZ,YZ 
:QTL003: 1.3779 3.2039 0.0070 0.0008 1.0341 2.1698 0.0000 0.0015 0.0013 0.0043 0.0000 0.0000
        Q-s-low E-s-low   Q-p-low E-p-low   Q-d-low E-d-low   Q-f-low E-f-low
:EPL003:  1.3248 -0.9019    0.0049 -1.1434    0.0003 -2.3875    0.0001 -2.2385
        Q-s-hi  E-s-hi    Q-p-hi  E-p-hi    Q-d-hi  E-d-hi    Q-f-hi  E-f-hi 
:EPH003:  0.0531  0.0767    3.1990  0.1669    0.0067  0.2777    0.0007  0.3130
:VZZ003: EFG INSIDE SPHERE   3 =     3.221563      UP TO R =   1.40000

:CHA  : TOTAL VALENCE CHARGE INSIDE UNIT CELL =      38.000000

:SUM  : SUM OF EIGENVALUES =         -50.558910575


        1.ATOM      Cu1                   5 CORE STATES
:1S 001: 1S                -649.654848024 Ry
:2S 001: 2S                 -77.346891533 Ry
:2PP001: 2P*                -67.664444949 Ry
:2P 001: 2P                 -66.158130832 Ry
:3S 001: 3S                  -7.691069036 Ry

        2.ATOM      Al1                   2 CORE STATES
:1S 002: 1S                -110.140458322 Ry
:2S 002: 2S                  -7.024697675 Ry

        3.ATOM      O 1                   1 CORE STATES
       CORE-FORCE in mRy/a.u. = |F|      Fx             Fy             Fz
:FCO003:   3.ATOM      5.284806316      0.000000000      0.000000000      5.284806316

:1S 003: 1S                 -36.669550759 Ry
:CINT001 Core Integral Atom   1   11.998496
:CINT002 Core Integral Atom   2    3.996085
:CINT003 Core Integral Atom   3    1.999999

       DENSITY AT NUCLEUS
        JATOM        VALENCE       SEMI-CORE          CORE           TOTAL
:RTO001:   1        7.888450        0.000000    22630.709749    22638.598199
:RTO002:   2        2.916794        0.000000     1487.081313     1489.998107
:RTO003:   3       14.716952        0.000000      304.058169      318.775121
     
       CHARGES OF NEW CHARGE DENSITY
:NTO   : INTERSTITIAL CHARGE =     6.797508
:NTO001: CHARGE SPHERE  1    =    27.372352
:NTO002: CHARGE SPHERE  2    =    10.645191
:NTO003: CHARGE SPHERE  3    =     6.589754

:NEC01: NUCLEAR AND ELECTRONIC CHARGE     58.00000    57.99456
     
       CHARGES OF OLD CHARGE DENSITY
:OTO   : INTERSTITIAL CHARGE =     6.802950
:OTO001: CHARGE SPHERE  1    =    27.372352
:OTO002: CHARGE SPHERE  2    =    10.645191
:OTO003: CHARGE SPHERE  3    =     6.589754

:NEC02: NUCLEAR AND ELECTRONIC CHARGE     58.00000    58.00000
     
       CONVERGENCE TEST
:DTO001: DIFFERENCE IN SPHERE  1 =  0.0000000
:DTO002: DIFFERENCE IN SPHERE  2 =  0.0000000
:DTO003: DIFFERENCE IN SPHERE  3 =  0.0000000

:DIS  :  CHARGE DISTANCE       ( 0.0000000 for atom    1 spin 1)      0.0000000
:BIG check (qbig,qrms,qtot)    0.411D-08   0.575D-08   0.749D-08
 
******************************************************
* MULTISECANT MIXING VER6 RELEASE 6.0 OPTIONS        *
* Standard Mode with controls                        *
* Regularization       1.000E-06                     *
* Trust Region Control Active                        *
* Max Number of Memory Steps    8                    *
******************************************************
 
:PLANE:  INTERSTITIAL TOTAL      1.73800 DISTAN  1.026E-07 % 
:CHARG:  CLM CHARGE   /ATOM     54.22795 DISTAN  1.413E-08 % 
 
 Step History DMIX, Red, Pred, Trust, FRMS, FABS
 16  2.0000E-01  1.9223E-01  3.9257E-01  4.5937E+00
 17  2.0000E-01  3.1429E-01  4.5423E-01  4.5365E+00
 18  2.0000E-01  6.7821E-01  8.6144E-01  5.2010E+00
 19  2.0000E-01  5.1836E-01  8.1107E-01  5.1121E+00
 20  2.0000E-01  4.5049E-01  6.2178E-01  5.1678E+00
 21  2.0000E-01  4.7045E-01  7.4179E-01  5.1986E+00
 22  2.0000E-01  3.4531E-01  5.2017E-01  5.2829E+00
 23  2.0108E-01  1.0000E+00  8.1562E-01  5.3623E+00
  
:NORMS:  Nuclear, Spectral, Froebius, Shanno-Pua   0.1172E+01  0.9660E+00  0.1097E+01  0.9117E+00
:INFO :  Number of Memory Steps    8 Skipping   14
:INFO :  SLambda=    1.3405630  Max    1.3405630

Eigenvalues, unscaled except for SY+YY
   #     SY Real        SY Imag          SS             YY         SY+YY Real      SY+YY Imag
   1   3.034022E+00   0.000000E+00   3.246541E+00   3.029410E+00   7.081183E+00   0.000000E+00
   2   1.490882E+00   0.000000E+00   1.586269E+00   1.623391E+00   3.531061E+00   0.000000E+00
   3   1.160499E+00   0.000000E+00   9.394106E-01   1.420271E+00   3.061246E+00   0.000000E+00
   4   2.494401E-03   0.000000E+00   4.075065E-01   1.124985E+00   6.470499E-03   0.000000E+00
   5   4.691067E-02   0.000000E+00   3.418982E-01   2.949952E-03   1.265827E-01   0.000000E+00
   6   1.351865E-01   0.000000E+00   8.458293E-02   6.099629E-02   4.420770E-01   0.000000E+00
   7   4.340661E-01   0.000000E+00   1.779434E-03   4.773857E-01   1.056887E+00   0.000000E+00
   8   5.651069E-01   0.000000E+00   3.581050E-02   2.606117E-01   1.903043E+00   0.000000E+00
 
:INFO :  Singular value   7.089E+00 Weight  1.0000E+00 Projections  -1.535E-09  1.804E-09
:INFO :  Singular value   3.547E+00 Weight  1.0000E+00 Projections   8.110E-08  2.791E-09
:INFO :  Singular value   3.060E+00 Weight  1.0000E+00 Projections  -1.603E-07 -5.558E-09
:INFO :  Singular value   1.899E+00 Weight  1.0000E+00 Projections   1.682E-07  9.180E-10
:INFO :  Singular value   1.056E+00 Weight  1.0000E+00 Projections  -5.065E-08 -5.634E-09
:INFO :  Singular value   4.413E-01 Weight  1.0000E+00 Projections   6.318E-09  2.171E-08
:INFO :  Singular value   1.265E-01 Weight  1.0000E+00 Projections   5.609E-09  7.625E-08
:INFO :  Singular value   6.470E-03 Weight  1.0000E+00 Projections  -6.038E-08  2.459E-07
 
:DIRM :  MEMORY 8/8 RESCALE  12.01 RED 0.565 PRED 0.816 NEXT 0.547
:INFO :  Blimit    5.325E+00  1.388E+00  1.000E+00  5.551E+00
:DIRP :  |MSR1|= 1.539E-08 |PRATT|= 2.143E-08 ANGLE=  26.6 DEGREES
:DIRQ :  |MSR1|= 0.000E+00 |PRATT|= 0.000E+00 ANGLE=   0.0 DEGREES
:DIR  :  |MSR1|= 2.232E-08 |PRATT|= 3.143E-08 ANGLE=  22.1 DEGREES
:MIX  :   MSE1   REGULARIZATION: 3.03E-06  GREED: 0.207  Newton 1.00  0.71                
     
       CHARGES OF MIXED CHARGE DENSITY
:CTO   : INTERSTITIAL CHARGE =     6.802950
:CTO001: CHARGE SPHERE  1    =    27.372352
:CTO002: CHARGE SPHERE  2    =    10.645191
:CTO003: CHARGE SPHERE  3    =     6.589754

:NEC03: NUCLEAR AND ELECTRONIC CHARGE     58.00000    58.00000

PW CHANGE     H    K    L       Current     Change     Residue
:PTO001:      0    0    0  6.52656360E-02 -1.848E-12 -3.824E-12
:PTO002:     -1   -1   -1 -2.24075529E-02 -1.062E-12  4.572E-11
:PTO003:     -2   -2   -2 -8.28040294E-03 -1.876E-11 -3.850E-11
:PTO004:     -1    0    0  1.15215326E-01  3.010E-11  3.145E-11
:PTO005:     -1   -1    0  5.61472021E-02 -1.274E-11 -1.419E-11
:PTO006:     -2   -1   -1 -7.51534781E-02 -3.057E-11 -5.752E-12
:PTO007:     -2   -2   -1 -7.99766227E-02 -1.215E-11  1.435E-11
:PTO008:     -3   -3   -3  3.17944776E-02 -8.986E-12 -1.638E-11
:PTO009:     -3   -2   -2  1.62776897E-02  3.910E-12 -1.284E-11
:PTO010:     -3   -3   -2  5.01536391E-02  1.529E-11 -3.886E-13
:PTO011:     -1    0    1  3.87710134E-02  5.166E-11  5.524E-11
:PTO012:     -4   -4   -4 -5.42164409E-03 -3.256E-11 -3.517E-11

:ENE  : ********** TOTAL ENERGY IN Ry =        -4097.04478307

       TOTAL FORCE IN mRy/a.u. = |F|     Fx             Fy             Fz     with/without FOR in case.in2
:FOR001:   1.ATOM          0.000          0.000          0.000          0.000 partial forces
:FOR002:   2.ATOM          0.000          0.000          0.000          0.000 partial forces
:FOR003:   3.ATOM          6.498          0.000          0.000         -6.498 partial forces
       TOTAL FORCE WITH RESPECT TO GLOBAL CARTESIAN COORDINATES:
:FCA001:   1.ATOM                         0.000          0.000          0.000 partial forces
:FCA002:   2.ATOM                         0.000          0.000          0.000 partial forces
:FCA003:   3.ATOM                         0.000          0.000         -6.498 partial forces
       TOTAL FORCE WITH RESPECT TO THE GLOBAL COORDINATE SYSTEM:
:FGL001:   1.ATOM                 0.000000000     0.000000000     0.000000000 partial forces
:FGL002:   2.ATOM                 0.000000000     0.000000000     0.000000000 partial forces
:FGL003:   3.ATOM                -6.497530280    -6.497530280    -6.497530280 partial forces
