    4    4    1    1
  0.9829158E+01  0.5862275E-09  0.5862275E-09  0.5862275E-09  0.5000000E-15
  1.000000000000000E-004
  CAR 
 unknown system                          
     34     61     36
 
  0.0000000E+00  0.0000000E+00  0.0000000E+00  0.1639344E-01
    1     -105.467418   1.000000
    2      -63.162350   1.000000
    3      -62.951336   1.000000
    4      -62.951335   1.000000
    5      -15.268141   1.000000
    6      -13.091550   1.000000
    7       -2.591454   1.000000
    8        1.916489   1.000000
    9        1.987714   1.000000
   10        1.987714   1.000000
   11        2.048673   1.000000
   12        3.193052   1.000000
   13        3.193052   1.000000
   14        4.038990   1.000000
   15        4.038990   1.000000
   16        4.777713   1.000000
   17        4.777713   1.000000
   18        7.804727   0.000000
   19       11.906481   0.000000
   20       13.131535   0.000000
   21       17.537793   0.000000
   22       19.624341   0.000000
   23       20.641453   0.000000
   24       24.660232   0.000000
   25       23.392415   0.000000
   26       25.950221   0.000000
   27       25.948998   0.000000
   28       26.954318   0.000000
   29       26.954321   0.000000
   30       27.213898   0.000000
   31       30.214844   0.000000
   32       31.043944   0.000000
   33       31.093890   0.000000
   34       31.867482   0.000000
   35       28.716790   0.000000
   36       23.086573   0.000000
 
 -0.4270945E-02  0.4270945E-02  0.0000000E+00  0.1639344E-01
    1     -105.467419   1.000000
    2      -63.162275   1.000000
    3      -62.951386   1.000000
    4      -62.951357   1.000000
    5      -15.267477   1.000000
    6      -13.091250   1.000000
    7       -2.590742   1.000000
    8        1.916309   1.000000
    9        1.961254   1.000000
   10        1.987136   1.000000
   11        2.072911   1.000000
   12        3.191317   1.000000
   13        3.192650   1.000000
   14        4.038721   1.000000
   15        4.039410   1.000000
   16        4.777288   1.000000
   17        4.777631   1.000000
   18        7.805939   0.000000
   19       11.908965   0.000000
   20       13.133335   0.000000
   21       17.537779   0.000000
   22       19.654814   0.000000
   23       19.287341   0.000000
   24       24.660803   0.000000
   25       23.148713   0.000000
   26       25.751341   0.000000
   27       25.933903   0.000000
   28       26.968535   0.000000
   29       26.975047   0.000000
   30       27.217330   0.000000
   31       24.437150   0.000000
   32       30.185880   0.000000
   33       31.044207   0.000000
   34       30.791365   0.000000
   35       31.620164   0.000000
   36       22.353006   0.000000
 
 -0.2135473E-02  0.2135473E-02  0.0000000E+00  0.1639344E-01
    1     -105.467424   1.000000
    2      -63.162380   1.000000
    3      -62.951395   1.000000
    4      -62.951355   1.000000
    5      -15.267986   1.000000
    6      -13.091493   1.000000
    7       -2.591292   1.000000
    8        1.916430   1.000000
    9        1.979486   1.000000
   10        1.987568   1.000000
   11        2.056334   1.000000
   12        3.192617   1.000000
   13        3.192951   1.000000
   14        4.038891   1.000000
   15        4.039084   1.000000
   16        4.777550   1.000000
   17        4.777677   1.000000
   18        7.805018   0.000000
   19       11.907102   0.000000
   20       13.131971   0.000000
   21       17.537790   0.000000
   22       19.600312   0.000000
   23       21.017746   0.000000
   24       21.019640   0.000000
   25       24.402645   0.000000
   26       25.946220   0.000000
   27       25.939974   0.000000
   28       23.336528   0.000000
   29       26.957801   0.000000
   30       26.959652   0.000000
   31       27.214809   0.000000
   32       30.205582   0.000000
   33       31.044310   0.000000
   34       31.054230   0.000000
   35       31.867745   0.000000
   36       29.749095   0.000000
 
  0.2135473E-02 -0.2135473E-02  0.0000000E+00  0.1639344E-01
    1     -105.467424   1.000000
    2      -63.162380   1.000000
    3      -62.951395   1.000000
    4      -62.951355   1.000000
    5      -15.267986   1.000000
    6      -13.091493   1.000000
    7       -2.591292   1.000000
    8        1.916430   1.000000
    9        1.979486   1.000000
   10        1.987568   1.000000
   11        2.056334   1.000000
   12        3.192617   1.000000
   13        3.192951   1.000000
   14        4.038891   1.000000
   15        4.039084   1.000000
   16        4.777550   1.000000
   17        4.777677   1.000000
   18        7.805018   0.000000
   19       11.907102   0.000000
   20       13.131971   0.000000
   21       17.537787   0.000000
   22       19.664273   0.000000
   23       19.631625   0.000000
   24       22.396755   0.000000
   25       24.461007   0.000000
   26       25.944575   0.000000
   27       25.946106   0.000000
   28       23.651401   0.000000
   29       26.957406   0.000000
   30       26.959588   0.000000
   31       27.214750   0.000000
   32       22.443269   0.000000
   33       29.540403   0.000000
   34       31.049737   0.000000
   35       31.055458   0.000000
   36       31.867114   0.000000
 
  0.4270945E-02 -0.4270945E-02  0.0000000E+00  0.1639344E-01
    1     -105.467419   1.000000
    2      -63.162275   1.000000
    3      -62.951386   1.000000
    4      -62.951357   1.000000
    5      -15.267477   1.000000
    6      -13.091250   1.000000
    7       -2.590742   1.000000
    8        1.916309   1.000000
    9        1.961254   1.000000
   10        1.987136   1.000000
   11        2.072911   1.000000
   12        3.191317   1.000000
   13        3.192650   1.000000
   14        4.038720   1.000000
   15        4.039410   1.000000
   16        4.777288   1.000000
   17        4.777631   1.000000
   18        7.805939   0.000000
   19       11.908965   0.000000
   20       13.133335   0.000000
   21       17.537778   0.000000
   22       19.662067   0.000000
   23       19.356403   0.000000
   24       21.117722   0.000000
   25       23.206840   0.000000
   26       24.111881   0.000000
   27       25.913995   0.000000
   28       25.533993   0.000000
   29       26.968695   0.000000
   30       26.975486   0.000000
   31       27.217593   0.000000
   32       17.275479   0.000000
   33       29.253492   0.000000
   34       31.045683   0.000000
   35       31.145105   0.000000
   36       31.869161   0.000000
 
 -0.2465832E-02 -0.2465832E-02  0.4931663E-02  0.1639344E-01
    1     -105.467427   1.000000
    2      -63.162394   1.000000
    3      -62.951403   1.000000
    4      -62.951395   1.000000
    5      -15.267484   1.000000
    6      -13.091283   1.000000
    7       -2.590790   1.000000
    8        1.916245   1.000000
    9        1.961235   1.000000
   10        1.987129   1.000000
   11        2.072910   1.000000
   12        3.191317   1.000000
   13        3.192650   1.000000
   14        4.038720   1.000000
   15        4.039380   1.000000
   16        4.777249   1.000000
   17        4.777589   1.000000
   18        7.805907   0.000000
   19       11.908965   0.000000
   20       13.133296   0.000000
   21       17.537779   0.000000
   22       19.589581   0.000000
   23       21.012683   0.000000
   24       20.524126   0.000000
   25       13.296744   0.000000
   26       24.607574   0.000000
   27       25.932072   0.000000
   28       25.391495   0.000000
   29       23.931246   0.000000
   30       26.968752   0.000000
   31       26.975377   0.000000
   32       27.217573   0.000000
   33       30.187819   0.000000
   34       31.039283   0.000000
   35       30.970907   0.000000
   36       31.871921   0.000000
 
 -0.1232916E-02 -0.1232916E-02  0.2465832E-02  0.1639344E-01
    1     -105.467428   1.000000
    2      -63.162395   1.000000
    3      -62.951395   1.000000
    4      -62.951394   1.000000
    5      -15.267992   1.000000
    6      -13.091501   1.000000
    7       -2.591294   1.000000
    8        1.916429   1.000000
    9        1.979486   1.000000
   10        1.987563   1.000000
   11        2.056334   1.000000
   12        3.192617   1.000000
   13        3.192950   1.000000
   14        4.038891   1.000000
   15        4.039056   1.000000
   16        4.777550   1.000000
   17        4.777635   1.000000
   18        7.805014   0.000000
   19       11.907102   0.000000
   20       13.131968   0.000000
   21       17.537786   0.000000
   22       19.660701   0.000000
   23       19.647097   0.000000
   24       20.945920   0.000000
   25       15.053060   0.000000
   26       23.622311   0.000000
   27       24.660371   0.000000
   28       25.943163   0.000000
   29       25.880840   0.000000
   30       26.958073   0.000000
   31       27.214772   0.000000
   32       30.205785   0.000000
   33       31.044182   0.000000
   34       31.054065   0.000000
   35       31.868255   0.000000
   36       27.572400   0.000000
 
  0.1232916E-02  0.1232916E-02 -0.2465832E-02  0.1639344E-01
    1     -105.467428   1.000000
    2      -63.162395   1.000000
    3      -62.951395   1.000000
    4      -62.951394   1.000000
    5      -15.267992   1.000000
    6      -13.091501   1.000000
    7       -2.591294   1.000000
    8        1.916429   1.000000
    9        1.979486   1.000000
   10        1.987563   1.000000
   11        2.056334   1.000000
   12        3.192617   1.000000
   13        3.192950   1.000000
   14        4.038891   1.000000
   15        4.039056   1.000000
   16        4.777550   1.000000
   17        4.777635   1.000000
   18        7.805014   0.000000
   19       11.907102   0.000000
   20       13.131968   0.000000
   21       17.537786   0.000000
   22       19.664214   0.000000
   23       19.507368   0.000000
   24       21.017737   0.000000
   25       21.019890   0.000000
   26       24.660321   0.000000
   27       25.937782   0.000000
   28       25.945866   0.000000
   29       26.957891   0.000000
   30       26.959660   0.000000
   31       27.214726   0.000000
   32       15.240754   0.000000
   33       29.987188   0.000000
   34       31.049364   0.000000
   35       31.790065   0.000000
   36       31.760490   0.000000
 
  0.2465832E-02  0.2465832E-02 -0.4931663E-02  0.1639344E-01
    1     -105.467427   1.000000
    2      -63.162394   1.000000
    3      -62.951403   1.000000
    4      -62.951395   1.000000
    5      -15.267484   1.000000
    6      -13.091283   1.000000
    7       -2.590790   1.000000
    8        1.916245   1.000000
    9        1.961235   1.000000
   10        1.987129   1.000000
   11        2.072910   1.000000
   12        3.191317   1.000000
   13        3.192650   1.000000
   14        4.038720   1.000000
   15        4.039380   1.000000
   16        4.777249   1.000000
   17        4.777589   1.000000
   18        7.805907   0.000000
   19       11.908965   0.000000
   20       13.133296   0.000000
   21       17.537777   0.000000
   22       19.659242   0.000000
   23       19.662507   0.000000
   24       24.660749   0.000000
   25       25.932250   0.000000
   26       25.932794   0.000000
   27       23.327010   0.000000
   28       26.968756   0.000000
   29       26.975377   0.000000
   30       27.217573   0.000000
   31       29.723879   0.000000
   32       31.043702   0.000000
   33       31.078136   0.000000
   34       21.000372   0.000000
   35       31.847390   0.000000
   36       25.007197   0.000000
 
 -0.1692757E-01 -0.1692757E-01 -0.1692757E-01  0.1639344E-01
    1     -105.467414   1.000000
    2      -63.162080   1.000000
    3      -62.951368   1.000000
    4      -62.951368   1.000000
    5      -15.267887   1.000000
    6      -13.092044   1.000000
    7       -2.588985   1.000000
    8        1.910090   1.000000
    9        1.988290   1.000000
   10        1.988290   1.000000
   11        2.051229   1.000000
   12        3.191788   1.000000
   13        3.191788   1.000000
   14        4.038954   1.000000
   15        4.038954   1.000000
   16        4.778486   1.000000
   17        4.778486   1.000000
   18        7.808257   0.000000
   19       11.904700   0.000000
   20       13.129864   0.000000
   21       17.540424   0.000000
   22       19.665571   0.000000
   23       19.554342   0.000000
   24       20.902832   0.000000
   25       13.487477   0.000000
   26       24.654409   0.000000
   27       25.927079   0.000000
   28       25.940968   0.000000
   29       26.962814   0.000000
   30       26.963151   0.000000
   31       21.865768   0.000000
   32       27.217244   0.000000
   33       30.206208   0.000000
   34       31.012206   0.000000
   35       31.013810   0.000000
   36       31.902184   0.000000
 
 -0.8463785E-02 -0.8463785E-02 -0.8463785E-02  0.1639344E-01
    1     -105.467415   1.000000
    2      -63.162080   1.000000
    3      -62.951369   1.000000
    4      -62.951369   1.000000
    5      -15.268092   1.000000
    6      -13.091636   1.000000
    7       -2.590740   1.000000
    8        1.915005   1.000000
    9        1.987876   1.000000
   10        1.987876   1.000000
   11        2.049344   1.000000
   12        3.192735   1.000000
   13        3.192735   1.000000
   14        4.038952   1.000000
   15        4.038952   1.000000
   16        4.777903   1.000000
   17        4.777903   1.000000
   18        7.805669   0.000000
   19       11.906036   0.000000
   20       13.131188   0.000000
   21       17.538453   0.000000
   22       19.662529   0.000000
   23       19.638288   0.000000
   24       20.324523   0.000000
   25       24.657220   0.000000
   26       25.905397   0.000000
   27       25.931450   0.000000
   28       23.055448   0.000000
   29       26.956533   0.000000
   30       26.956512   0.000000
   31       27.214790   0.000000
   32       28.743426   0.000000
   33       31.035411   0.000000
   34       31.028025   0.000000
   35       31.863078   0.000000
   36       22.132533   0.000000
 
  0.8463785E-02  0.8463785E-02  0.8463785E-02  0.1639344E-01
    1     -105.467415   1.000000
    2      -63.162080   1.000000
    3      -62.951369   1.000000
    4      -62.951369   1.000000
    5      -15.268092   1.000000
    6      -13.091636   1.000000
    7       -2.590740   1.000000
    8        1.915005   1.000000
    9        1.987876   1.000000
   10        1.987876   1.000000
   11        2.049344   1.000000
   12        3.192735   1.000000
   13        3.192735   1.000000
   14        4.038952   1.000000
   15        4.038952   1.000000
   16        4.777903   1.000000
   17        4.777903   1.000000
   18        7.805669   0.000000
   19       11.906036   0.000000
   20       13.131188   0.000000
   21       17.538452   0.000000
   22       19.642725   0.000000
   23       16.684627   0.000000
   24       18.151540   0.000000
   25       24.638378   0.000000
   26       25.944433   0.000000
   27       25.948856   0.000000
   28       23.873889   0.000000
   29       26.956533   0.000000
   30       26.956531   0.000000
   31       27.214798   0.000000
   32       30.198029   0.000000
   33       19.369137   0.000000
   34       31.025753   0.000000
   35       30.997601   0.000000
   36       31.876360   0.000000
 
  0.1692757E-01  0.1692757E-01  0.1692757E-01  0.1639344E-01
    1     -105.467414   1.000000
    2      -63.162080   1.000000
    3      -62.951369   1.000000
    4      -62.951368   1.000000
    5      -15.267887   1.000000
    6      -13.092044   1.000000
    7       -2.588985   1.000000
    8        1.910090   1.000000
    9        1.988290   1.000000
   10        1.988290   1.000000
   11        2.051229   1.000000
   12        3.191788   1.000000
   13        3.191788   1.000000
   14        4.038954   1.000000
   15        4.038954   1.000000
   16        4.778486   1.000000
   17        4.778486   1.000000
   18        7.808257   0.000000
   19       11.904700   0.000000
   20       13.129864   0.000000
   21       17.540437   0.000000
   22       19.657253   0.000000
   23       19.503207   0.000000
   24       20.991276   0.000000
   25       20.958572   0.000000
   26       24.660348   0.000000
   27       25.944484   0.000000
   28       25.944487   0.000000
   29       26.963084   0.000000
   30       26.963151   0.000000
   31       27.217267   0.000000
   32       16.216731   0.000000
   33       30.199980   0.000000
   34       31.012593   0.000000
   35       31.007719   0.000000
   36       31.873657   0.000000
 
 -0.6736777E-02  0.1805114E-02  0.4931663E-02  0.1639344E-01
    1     -105.467417   1.000000
    2      -63.162185   1.000000
    3      -62.951393   1.000000
    4      -62.951385   1.000000
    5      -15.266806   1.000000
    6      -13.090943   1.000000
    7       -2.590027   1.000000
    8        1.916116   1.000000
    9        1.943148   1.000000
   10        1.986567   1.000000
   11        2.088802   1.000000
   12        3.189591   1.000000
   13        3.192248   1.000000
   14        4.038494   1.000000
   15        4.039814   1.000000
   16        4.776904   1.000000
   17        4.777549   1.000000
   18        7.807153   0.000000
   19       11.911448   0.000000
   20       13.135137   0.000000
   21       17.537765   0.000000
   22       19.668058   0.000000
   23       19.512226   0.000000
   24       21.006327   0.000000
   25       21.022994   0.000000
   26       24.623029   0.000000
   27       25.859877   0.000000
   28       25.914648   0.000000
   29       26.982491   0.000000
   30       26.995701   0.000000
   31       27.221300   0.000000
   32       23.432371   0.000000
   33       30.164508   0.000000
   34       31.041797   0.000000
   35       31.098636   0.000000
   36       31.870375   0.000000
 
 -0.4601304E-02 -0.3303588E-03  0.4931663E-02  0.1639344E-01
    1     -105.467419   1.000000
    2      -63.162274   1.000000
    3      -62.951389   1.000000
    4      -62.951357   1.000000
    5      -15.267308   1.000000
    6      -13.091178   1.000000
    7       -2.590574   1.000000
    8        1.916247   1.000000
    9        1.956273   1.000000
   10        1.986993   1.000000
   11        2.077333   1.000000
   12        3.190885   1.000000
   13        3.192550   1.000000
   14        4.038664   1.000000
   15        4.039518   1.000000
   16        4.777188   1.000000
   17        4.777615   1.000000
   18        7.806236   0.000000
   19       11.909586   0.000000
   20       13.133778   0.000000
   21       17.537775   0.000000
   22       19.642257   0.000000
   23       18.902012   0.000000
   24       21.071082   0.000000
   25       16.533353   0.000000
   26       24.660812   0.000000
   27       25.915526   0.000000
   28       25.928725   0.000000
   29       26.972175   0.000000
   30       26.980628   0.000000
   31       27.218526   0.000000
   32       18.747340   0.000000
   33       30.181410   0.000000
   34       31.042890   0.000000
   35       31.081657   0.000000
   36       31.875711   0.000000
 
 -0.3303588E-03 -0.4601304E-02  0.4931663E-02  0.1639344E-01
    1     -105.467419   1.000000
    2      -63.162274   1.000000
    3      -62.951389   1.000000
    4      -62.951357   1.000000
    5      -15.267308   1.000000
    6      -13.091178   1.000000
    7       -2.590574   1.000000
    8        1.916247   1.000000
    9        1.956273   1.000000
   10        1.986993   1.000000
   11        2.077333   1.000000
   12        3.190885   1.000000
   13        3.192550   1.000000
   14        4.038664   1.000000
   15        4.039518   1.000000
   16        4.777188   1.000000
   17        4.777615   1.000000
   18        7.806236   0.000000
   19       11.909586   0.000000
   20       13.133778   0.000000
   21       17.537784   0.000000
   22       19.855432   0.000000
   23       20.868201   0.000000
   24       22.265615   0.000000
   25       24.645290   0.000000
   26       25.927458   0.000000
   27       25.928976   0.000000
   28       26.972140   0.000000
   29       26.980589   0.000000
   30       27.218525   0.000000
   31       12.727904   0.000000
   32       30.181462   0.000000
   33       31.043676   0.000000
   34       31.078653   0.000000
   35       31.867739   0.000000
   36       18.517213   0.000000
 
  0.1805114E-02 -0.6736777E-02  0.4931663E-02  0.1639344E-01
    1     -105.467417   1.000000
    2      -63.162185   1.000000
    3      -62.951393   1.000000
    4      -62.951385   1.000000
    5      -15.266806   1.000000
    6      -13.090943   1.000000
    7       -2.590027   1.000000
    8        1.916116   1.000000
    9        1.943148   1.000000
   10        1.986567   1.000000
   11        2.088802   1.000000
   12        3.189591   1.000000
   13        3.192248   1.000000
   14        4.038494   1.000000
   15        4.039814   1.000000
   16        4.776904   1.000000
   17        4.777549   1.000000
   18        7.807153   0.000000
   19       11.911448   0.000000
   20       13.135137   0.000000
   21       17.537765   0.000000
   22       19.650257   0.000000
   23       19.656271   0.000000
   24       24.661145   0.000000
   25       25.886450   0.000000
   26       25.914738   0.000000
   27       26.982545   0.000000
   28       26.995696   0.000000
   29       27.221369   0.000000
   30       17.013699   0.000000
   31       25.584431   0.000000
   32       30.084404   0.000000
   33       31.038218   0.000000
   34       31.097899   0.000000
   35       31.869494   0.000000
   36       21.687393   0.000000
 
 -0.5503861E-02  0.3038030E-02  0.2465832E-02  0.1639344E-01
    1     -105.467418   1.000000
    2      -63.162186   1.000000
    3      -62.951388   1.000000
    4      -62.951380   1.000000
    5      -15.267314   1.000000
    6      -13.091161   1.000000
    7       -2.590532   1.000000
    8        1.916309   1.000000
    9        1.956289   1.000000
   10        1.986995   1.000000
   11        2.077334   1.000000
   12        3.190885   1.000000
   13        3.192550   1.000000
   14        4.038664   1.000000
   15        4.039491   1.000000
   16        4.777208   1.000000
   17        4.777593   1.000000
   18        7.806262   0.000000
   19       11.909586   0.000000
   20       13.133810   0.000000
   21       17.537775   0.000000
   22       19.656711   0.000000
   23       19.606547   0.000000
   24       17.313973   0.000000
   25       24.660922   0.000000
   26       25.927870   0.000000
   27       25.929464   0.000000
   28       26.972286   0.000000
   29       26.980509   0.000000
   30       27.218533   0.000000
   31       21.489837   0.000000
   32       30.111383   0.000000
   33       31.105015   0.000000
   34       31.035985   0.000000
   35       31.870603   0.000000
   36       27.757409   0.000000
 
 -0.3368389E-02  0.9025570E-03  0.2465832E-02  0.1639344E-01
    1     -105.467424   1.000000
    2      -63.162380   1.000000
    3      -62.951397   1.000000
    4      -62.951356   1.000000
    5      -15.267816   1.000000
    6      -13.091420   1.000000
    7       -2.591123   1.000000
    8        1.916369   1.000000
    9        1.972647   1.000000
   10        1.987423   1.000000
   11        2.062615   1.000000
   12        3.192183   1.000000
   13        3.192851   1.000000
   14        4.038836   1.000000
   15        4.039191   1.000000
   16        4.777452   1.000000
   17        4.777659   1.000000
   18        7.805315   0.000000
   19       11.907723   0.000000
   20       13.132414   0.000000
   21       17.537786   0.000000
   22       19.659912   0.000000
   23       16.267781   0.000000
   24       21.522811   0.000000
   25       21.468273   0.000000
   26       23.921741   0.000000
   27       25.936762   0.000000
   28       25.804740   0.000000
   29       26.961595   0.000000
   30       26.964975   0.000000
   31       27.215726   0.000000
   32       17.633408   0.000000
   33       31.038174   0.000000
   34       30.307289   0.000000
   35       30.228283   0.000000
   36       32.079065   0.000000
 
  0.9025570E-03 -0.3368389E-02  0.2465832E-02  0.1639344E-01
    1     -105.467424   1.000000
    2      -63.162380   1.000000
    3      -62.951397   1.000000
    4      -62.951356   1.000000
    5      -15.267816   1.000000
    6      -13.091420   1.000000
    7       -2.591123   1.000000
    8        1.916369   1.000000
    9        1.972647   1.000000
   10        1.987423   1.000000
   11        2.062615   1.000000
   12        3.192183   1.000000
   13        3.192851   1.000000
   14        4.038836   1.000000
   15        4.039191   1.000000
   16        4.777452   1.000000
   17        4.777659   1.000000
   18        7.805315   0.000000
   19       11.907723   0.000000
   20       13.132414   0.000000
   21       17.537785   0.000000
   22       19.664226   0.000000
   23       20.617064   0.000000
   24       20.917291   0.000000
   25       24.660537   0.000000
   26       25.927166   0.000000
   27       25.940504   0.000000
   28       26.961593   0.000000
   29       26.964963   0.000000
   30       12.606953   0.000000
   31       27.215210   0.000000
   32       30.189590   0.000000
   33       31.047909   0.000000
   34       31.058127   0.000000
   35       27.340109   0.000000
   36       31.862521   0.000000
 
  0.3038030E-02 -0.5503861E-02  0.2465832E-02  0.1639344E-01
    1     -105.467418   1.000000
    2      -63.162186   1.000000
    3      -62.951388   1.000000
    4      -62.951380   1.000000
    5      -15.267314   1.000000
    6      -13.091161   1.000000
    7       -2.590532   1.000000
    8        1.916309   1.000000
    9        1.956289   1.000000
   10        1.986995   1.000000
   11        2.077334   1.000000
   12        3.190885   1.000000
   13        3.192550   1.000000
   14        4.038664   1.000000
   15        4.039491   1.000000
   16        4.777208   1.000000
   17        4.777593   1.000000
   18        7.806262   0.000000
   19       11.909586   0.000000
   20       13.133810   0.000000
   21       17.537775   0.000000
   22       19.653364   0.000000
   23       19.605690   0.000000
   24       21.011442   0.000000
   25       21.021638   0.000000
   26       24.658933   0.000000
   27       25.725506   0.000000
   28       25.926193   0.000000
   29       23.338650   0.000000
   30       26.972287   0.000000
   31       26.980506   0.000000
   32       27.218549   0.000000
   33       30.182158   0.000000
   34       31.042845   0.000000
   35       32.607920   0.000000
   36       31.873123   0.000000
 
 -0.3038030E-02  0.5503861E-02 -0.2465832E-02  0.1639344E-01
    1     -105.467418   1.000000
    2      -63.162186   1.000000
    3      -62.951388   1.000000
    4      -62.951380   1.000000
    5      -15.267314   1.000000
    6      -13.091161   1.000000
    7       -2.590532   1.000000
    8        1.916309   1.000000
    9        1.956289   1.000000
   10        1.986995   1.000000
   11        2.077334   1.000000
   12        3.190885   1.000000
   13        3.192550   1.000000
   14        4.038664   1.000000
   15        4.039491   1.000000
   16        4.777208   1.000000
   17        4.777593   1.000000
   18        7.806262   0.000000
   19       11.909586   0.000000
   20       13.133810   0.000000
   21       17.537778   0.000000
   22       19.400919   0.000000
   23       20.885906   0.000000
   24       21.204810   0.000000
   25       14.310207   0.000000
   26       24.649693   0.000000
   27       25.923782   0.000000
   28       25.893663   0.000000
   29       26.972286   0.000000
   30       26.980509   0.000000
   31       27.218554   0.000000
   32       18.826388   0.000000
   33       30.041558   0.000000
   34       31.041851   0.000000
   35       31.078100   0.000000
   36       31.868517   0.000000
 
 -0.9025570E-03  0.3368389E-02 -0.2465832E-02  0.1639344E-01
    1     -105.467424   1.000000
    2      -63.162380   1.000000
    3      -62.951397   1.000000
    4      -62.951356   1.000000
    5      -15.267816   1.000000
    6      -13.091420   1.000000
    7       -2.591123   1.000000
    8        1.916369   1.000000
    9        1.972647   1.000000
   10        1.987423   1.000000
   11        2.062615   1.000000
   12        3.192183   1.000000
   13        3.192851   1.000000
   14        4.038836   1.000000
   15        4.039191   1.000000
   16        4.777452   1.000000
   17        4.777659   1.000000
   18        7.805315   0.000000
   19       11.907723   0.000000
   20       13.132414   0.000000
   21       17.537787   0.000000
   22       20.996238   0.000000
   23       21.017912   0.000000
   24       15.437991   0.000000
   25       20.652103   0.000000
   26       24.660521   0.000000
   27       25.941268   0.000000
   28       25.942075   0.000000
   29       26.961594   0.000000
   30       26.964974   0.000000
   31       27.215725   0.000000
   32       30.199444   0.000000
   33       31.051045   0.000000
   34       31.061930   0.000000
   35       31.870802   0.000000
   36       34.440945   0.000000
 
  0.3368389E-02 -0.9025570E-03 -0.2465832E-02  0.1639344E-01
    1     -105.467424   1.000000
    2      -63.162380   1.000000
    3      -62.951397   1.000000
    4      -62.951356   1.000000
    5      -15.267816   1.000000
    6      -13.091420   1.000000
    7       -2.591123   1.000000
    8        1.916369   1.000000
    9        1.972647   1.000000
   10        1.987423   1.000000
   11        2.062615   1.000000
   12        3.192183   1.000000
   13        3.192851   1.000000
   14        4.038836   1.000000
   15        4.039191   1.000000
   16        4.777452   1.000000
   17        4.777659   1.000000
   18        7.805315   0.000000
   19       11.907723   0.000000
   20       13.132414   0.000000
   21       17.537787   0.000000
   22       19.630367   0.000000
   23       21.018343   0.000000
   24       21.057527   0.000000
   25       24.643266   0.000000
   26       25.916110   0.000000
   27       25.534376   0.000000
   28       26.961578   0.000000
   29       26.964958   0.000000