    4    4    1    1
  0.9829158E+01  0.5862275E-09  0.5862275E-09  0.5862275E-09  0.5000000E-15
  1.000000000000000E-004
  CAR 
 unknown system                          
     34     61     36
 
  0.0000000E+00  0.0000000E+00  0.0000000E+00  0.1639344E-01
    1     -105.467418   1.000000
    2      -63.162350   1.000000
    3      -62.951336   1.000000
    4      -62.951335   1.000000
    5      -15.268141   1.000000
    6      -13.091550   1.000000
    7       -2.591454   1.000000
    8        1.916489   1.000000
    9        1.987714   1.000000
   10        1.987714   1.000000
   11        2.048673   1.000000
   12        3.193052   1.000000
   13        3.193052   1.000000
   14        4.038990   1.000000
   15        4.038990   1.000000
   16        4.777713   1.000000
   17        4.777713   1.000000
   18        7.804727   0.000000
   19       11.906481   0.000000
   20       13.131535   0.000000
   21       17.537793   0.000000
   22       19.624340   0.000000
   23       20.641318   0.000000
   24       24.660232   0.000000
   25       23.392325   0.000000
   26       25.950223   0.000000
   27       25.949005   0.000000
   28       26.954318   0.000000
   29       26.954321   0.000000
   30       27.213898   0.000000
   31       30.214844   0.000000
   32       31.043944   0.000000
   33       31.093899   0.000000
   34       31.867481   0.000000
   35       28.716184   0.000000
   36       23.085291   0.000000
 
 -0.8541891E-02  0.8541891E-02  0.0000000E+00  0.1639344E-01
    1     -105.467408   1.000000
    2      -63.162062   1.000000
    3      -62.951411   1.000000
    4      -62.951340   1.000000
    5      -15.265444   1.000000
    6      -13.090329   1.000000
    7       -2.588635   1.000000
    8        1.915352   1.000000
    9        1.915654   1.000000
   10        1.985465   1.000000
   11        2.112129   1.000000
   12        3.186163   1.000000
   13        3.191444   1.000000
   14        4.038041   1.000000
   15        4.040701   1.000000
   16        4.776106   1.000000
   17        4.777503   1.000000
   18        7.809555   0.000000
   19       11.916407   0.000000
   20       13.138711   0.000000
   21       17.537740   0.000000
   22       19.602885   0.000000
   23       19.040786   0.000000
   24       21.008355   0.000000
   25       22.243807   0.000000
   26       21.555924   0.000000
   27       24.661741   0.000000
   28       25.854729   0.000000
   29       25.888519   0.000000
   30       27.007988   0.000000
   31       27.034685   0.000000
   32       27.229176   0.000000
   33       30.122520   0.000000
   34       31.041622   0.000000
   35       31.150339   0.000000
   36       30.719538   0.000000
 
 -0.4270945E-02  0.4270945E-02  0.0000000E+00  0.1639344E-01
    1     -105.467419   1.000000
    2      -63.162275   1.000000
    3      -62.951386   1.000000
    4      -62.951357   1.000000
    5      -15.267477   1.000000
    6      -13.091250   1.000000
    7       -2.590742   1.000000
    8        1.916309   1.000000
    9        1.961254   1.000000
   10        1.987136   1.000000
   11        2.072911   1.000000
   12        3.191317   1.000000
   13        3.192650   1.000000
   14        4.038721   1.000000
   15        4.039410   1.000000
   16        4.777288   1.000000
   17        4.777631   1.000000
   18        7.805939   0.000000
   19       11.908965   0.000000
   20       13.133335   0.000000
   21       17.537781   0.000000
   22       19.658531   0.000000
   23       17.788595   0.000000
   24       20.816261   0.000000
   25       24.660758   0.000000
   26       25.867385   0.000000
   27       25.897628   0.000000
   28       26.968683   0.000000
   29       26.975464   0.000000
   30       27.217594   0.000000
   31       30.187352   0.000000
   32       31.041456   0.000000
   33       31.071554   0.000000
   34       31.873159   0.000000
   35       34.274505   0.000000
   36       33.134026   0.000000
 
  0.4270945E-02 -0.4270945E-02  0.0000000E+00  0.1639344E-01
    1     -105.467419   1.000000
    2      -63.162275   1.000000
    3      -62.951386   1.000000
    4      -62.951357   1.000000
    5      -15.267477   1.000000
    6      -13.091250   1.000000
    7       -2.590742   1.000000
    8        1.916309   1.000000
    9        1.961254   1.000000
   10        1.987136   1.000000
   11        2.072911   1.000000
   12        3.191317   1.000000
   13        3.192650   1.000000
   14        4.038720   1.000000
   15        4.039410   1.000000
   16        4.777288   1.000000
   17        4.777631   1.000000
   18        7.805939   0.000000
   19       11.908965   0.000000
   20       13.133335   0.000000
   21       17.537778   0.000000
   22       19.655066   0.000000
   23       19.406944   0.000000
   24       21.012482   0.000000
   25       21.016314   0.000000
   26       24.660752   0.000000
   27       25.932136   0.000000
   28       25.933912   0.000000
   29       26.968684   0.000000
   30       26.975465   0.000000
   31       27.217596   0.000000
   32       18.048447   0.000000
   33       30.187286   0.000000
   34       31.048351   0.000000
   35       31.071150   0.000000
   36       31.869616   0.000000
 
  0.8541891E-02 -0.8541891E-02  0.0000000E+00  0.1639344E-01
    1     -105.467408   1.000000
    2      -63.162062   1.000000
    3      -62.951411   1.000000
    4      -62.951340   1.000000
    5      -15.265444   1.000000
    6      -13.090329   1.000000
    7       -2.588635   1.000000
    8        1.915352   1.000000
    9        1.915654   1.000000
   10        1.985465   1.000000
   11        2.112129   1.000000
   12        3.186163   1.000000
   13        3.191444   1.000000
   14        4.038041   1.000000
   15        4.040701   1.000000
   16        4.776106   1.000000
   17        4.777503   1.000000
   18        7.809555   0.000000
   19       11.916407   0.000000
   20       13.138711   0.000000
   21       17.537737   0.000000
   22       19.637635   0.000000
   23       19.564432   0.000000
   24       20.993684   0.000000
   25       19.081654   0.000000
   26       24.661529   0.000000
   27       25.880230   0.000000
   28       25.888384   0.000000
   29       27.007968   0.000000
   30       27.034684   0.000000
   31       27.229171   0.000000
   32       17.395260   0.000000
   33       30.122487   0.000000
   34       31.040418   0.000000
   35       31.147610   0.000000
   36       31.868642   0.000000
 
 -0.4931663E-02 -0.4931663E-02  0.9863326E-02  0.1639344E-01
    1     -105.467415   1.000000
    2      -63.162182   1.000000
    3      -62.951411   1.000000
    4      -62.951395   1.000000
    5      -15.265451   1.000000
    6      -13.090362   1.000000
    7       -2.588684   1.000000
    8        1.914120   1.000000
    9        1.916850   1.000000
   10        1.985407   1.000000
   11        2.112132   1.000000
   12        3.186155   1.000000
   13        3.191449   1.000000
   14        4.038037   1.000000
   15        4.040673   1.000000
   16        4.776104   1.000000
   17        4.777423   1.000000
   18        7.809522   0.000000
   19       11.916407   0.000000
   20       13.138672   0.000000
   21       17.537735   0.000000
   22       19.572557   0.000000
   23       20.984878   0.000000
   24       19.708069   0.000000
   25       24.637566   0.000000
   26       23.351827   0.000000
   27       25.883005   0.000000
   28       25.886053   0.000000
   29       27.009294   0.000000
   30       27.033312   0.000000
   31       27.229234   0.000000
   32       30.122536   0.000000
   33       31.039510   0.000000
   34       31.147155   0.000000
   35       31.870856   0.000000
   36       22.654931   0.000000
 
 -0.2465832E-02 -0.2465832E-02  0.4931663E-02  0.1639344E-01
    1     -105.467427   1.000000
    2      -63.162394   1.000000
    3      -62.951403   1.000000
    4      -62.951395   1.000000
    5      -15.267484   1.000000
    6      -13.091283   1.000000
    7       -2.590790   1.000000
    8        1.916245   1.000000
    9        1.961235   1.000000
   10        1.987129   1.000000
   11        2.072910   1.000000
   12        3.191317   1.000000
   13        3.192650   1.000000
   14        4.038720   1.000000
   15        4.039380   1.000000
   16        4.777249   1.000000
   17        4.777589   1.000000
   18        7.805907   0.000000
   19       11.908965   0.000000
   20       13.133296   0.000000
   21       17.537778   0.000000
   22       19.629305   0.000000
   23       20.017924   0.000000
   24       14.529191   0.000000
   25       22.139265   0.000000
   26       24.660802   0.000000
   27       25.932270   0.000000
   28       25.933711   0.000000
   29       26.968750   0.000000
   30       26.974722   0.000000
   31       27.217571   0.000000
   32       24.022409   0.000000
   33       30.187215   0.000000
   34       31.051644   0.000000
   35       30.882993   0.000000
   36       31.868573   0.000000
 
  0.2465832E-02  0.2465832E-02 -0.4931663E-02  0.1639344E-01
    1     -105.467427   1.000000
    2      -63.162394   1.000000
    3      -62.951403   1.000000
    4      -62.951395   1.000000
    5      -15.267484   1.000000
    6      -13.091283   1.000000
    7       -2.590790   1.000000
    8        1.916245   1.000000
    9        1.961235   1.000000
   10        1.987129   1.000000
   11        2.072910   1.000000
   12        3.191317   1.000000
   13        3.192650   1.000000
   14        4.038720   1.000000
   15        4.039380   1.000000
   16        4.777249   1.000000
   17        4.777589   1.000000
   18        7.805907   0.000000
   19       11.908965   0.000000
   20       13.133296   0.000000
   21       17.537777   0.000000
   22       19.658265   0.000000
   23       19.649680   0.000000
   24       24.660689   0.000000
   25       25.931868   0.000000
   26       25.933715   0.000000
   27       26.968756   0.000000
   28       26.975377   0.000000
   29       27.217573   0.000000
   30       15.174266   0.000000
   31       18.422306   0.000000
   32       30.137438   0.000000
   33       31.036607   0.000000
   34       31.065422   0.000000
   35       31.865152   0.000000
   36       32.643111   0.000000
 
  0.4931663E-02  0.4931663E-02 -0.9863326E-02  0.1639344E-01
    1     -105.467415   1.000000
    2      -63.162182   1.000000
    3      -62.951411   1.000000
    4      -62.951395   1.000000
    5      -15.265451   1.000000
    6      -13.090362   1.000000
    7       -2.588684   1.000000
    8        1.914120   1.000000
    9        1.916850   1.000000
   10        1.985407   1.000000
   11        2.112132   1.000000
   12        3.186155   1.000000
   13        3.191449   1.000000
   14        4.038037   1.000000
   15        4.040673   1.000000
   16        4.776104   1.000000
   17        4.777423   1.000000
   18        7.809522   0.000000
   19       11.916407   0.000000
   20       13.138672   0.000000
   21       17.537735   0.000000
   22       19.620809   0.000000
   23       19.515738   0.000000
   24       21.585653   0.000000
   25       24.661737   0.000000
   26       23.079403   0.000000
   27       25.883021   0.000000
   28       25.874445   0.000000
   29       27.009294   0.000000
   30       27.033313   0.000000
   31       27.229234   0.000000
   32       30.123569   0.000000
   33       31.106659   0.000000
   34       31.880238   0.000000
   35       30.882893   0.000000
   36       23.914667   0.000000
 
 -0.3385514E-01 -0.3385514E-01 -0.3385514E-01  0.1639344E-01
    1     -105.467413   1.000000
    2      -63.162080   1.000000
    3      -62.951368   1.000000
    4      -62.951367   1.000000
    5      -15.267065   1.000000
    6      -13.093663   1.000000
    7       -2.581968   1.000000
    8        1.891619   1.000000
    9        1.989946   1.000000
   10        1.989946   1.000000
   11        2.057619   1.000000
   12        3.188015   1.000000
   13        3.188015   1.000000
   14        4.038962   1.000000
   15        4.038962   1.000000
   16        4.780806   1.000000
   17        4.780806   1.000000
   18        7.818579   0.000000
   19       11.899306   0.000000
   20       13.124656   0.000000
   21       17.548306   0.000000
   22       19.628901   0.000000
   23       18.680016   0.000000
   24       24.660692   0.000000
   25       22.822176   0.000000
   26       25.913830   0.000000
   27       25.925546   0.000000
   28       26.988964   0.000000
   29       26.988967   0.000000
   30       27.227226   0.000000
   31       17.077531   0.000000
   32       30.191177   0.000000
   33       30.929352   0.000000
   34       30.948125   0.000000
   35       31.993577   0.000000
   36       28.790655   0.000000
 
 -0.1692757E-01 -0.1692757E-01 -0.1692757E-01  0.1639344E-01
    1     -105.467414   1.000000
    2      -63.162080   1.000000
    3      -62.951369   1.000000
    4      -62.951368   1.000000
    5      -15.267887   1.000000
    6      -13.092044   1.000000
    7       -2.588985   1.000000
    8        1.910090   1.000000
    9        1.988290   1.000000
   10        1.988290   1.000000
   11        2.051229   1.000000
   12        3.191788   1.000000
   13        3.191788   1.000000
   14        4.038954   1.000000
   15        4.038954   1.000000
   16        4.778486   1.000000
   17        4.778486   1.000000
   18        7.808257   0.000000
   19       11.904700   0.000000
   20       13.129864   0.000000
   21       17.540437   0.000000
   22       19.664279   0.000000
   23       19.643611   0.000000
   24       21.019407   0.000000
   25       18.449906   0.000000
   26       24.660122   0.000000
   27       25.922659   0.000000
   28       25.930028   0.000000
   29       26.963142   0.000000
   30       26.963151   0.000000
   31       27.217297   0.000000
   32       30.206165   0.000000
   33       31.012206   0.000000
   34       31.014234   0.000000
   35       31.902128   0.000000
   36       33.507723   0.000000
 
  0.1692757E-01  0.1692757E-01  0.1692757E-01  0.1639344E-01
    1     -105.467414   1.000000
    2      -63.162080   1.000000
    3      -62.951368   1.000000
    4      -62.951368   1.000000
    5      -15.267887   1.000000
    6      -13.092044   1.000000
    7       -2.588985   1.000000
    8        1.910090   1.000000
    9        1.988290   1.000000
   10        1.988290   1.000000
   11        2.051229   1.000000
   12        3.191788   1.000000
   13        3.191788   1.000000
   14        4.038954   1.000000
   15        4.038954   1.000000
   16        4.778486   1.000000
   17        4.778486   1.000000
   18        7.808257   0.000000
   19       11.904700   0.000000
   20       13.129864   0.000000
   21       17.540438   0.000000
   22       19.665270   0.000000
   23       19.493144   0.000000
   24       21.911587   0.000000
   25       24.562005   0.000000
   26       23.516703   0.000000
   27       25.944440   0.000000
   28       25.880325   0.000000
   29       26.963152   0.000000
   30       26.963155   0.000000
   31       27.217297   0.000000
   32       30.966880   0.000000
   33       31.004862   0.000000
   34       32.097717   0.000000
   35       31.402817   0.000000
   36       23.515965   0.000000
 
  0.3385514E-01  0.3385514E-01  0.3385514E-01  0.1639344E-01
    1     -105.467413   1.000000
    2      -63.162080   1.000000
    3      -62.951368   1.000000
    4      -62.951367   1.000000
    5      -15.267065   1.000000
    6      -13.093663   1.000000
    7       -2.581968   1.000000
    8        1.891619   1.000000
    9        1.989946   1.000000
   10        1.989946   1.000000
   11        2.057619   1.000000
   12        3.188015   1.000000
   13        3.188015   1.000000
   14        4.038962   1.000000
   15        4.038962   1.000000
   16        4.780806   1.000000
   17        4.780806   1.000000
   18        7.818579   0.000000
   19       11.899306   0.000000
   20       13.124656   0.000000
   21       17.548310   0.000000
   22       19.319006   0.000000
   23       20.962808   0.000000
   24       20.891912   0.000000
   25       22.463173   0.000000
   26       24.537806   0.000000
   27       25.920611   0.000000
   28       25.718605   0.000000
   29       26.988965   0.000000
   30       26.988965   0.000000
   31       27.227226   0.000000
   32       30.189103   0.000000
   33       30.926750   0.000000
   34       30.934014   0.000000
   35       32.106442   0.000000
   36       22.732506   0.000000
 
 -0.1347355E-01  0.3610228E-02  0.9863326E-02  0.1639344E-01
    1     -105.467412   1.000000
    2      -63.162176   1.000000
    3      -62.951458   1.000000
    4      -62.951405   1.000000
    5      -15.262741   1.000000
    6      -13.089201   1.000000
    7       -2.585998   1.000000
    8        1.873429   1.000000
    9        1.914583   1.000000
   10        1.983172   1.000000
   11        2.145055   1.000000
   12        3.179378   1.000000
   13        3.189839   1.000000
   14        4.037128   1.000000
   15        4.042387   1.000000
   16        4.774500   1.000000
   17        4.777177   1.000000
   18        7.814237   0.000000
   19       11.926303   0.000000
   20       13.145722   0.000000
   21       17.537665   0.000000
   22       19.607847   0.000000
   23       19.676190   0.000000
   24       24.455394   0.000000
   25       25.740490   0.000000
   26       25.816318   0.000000
   27       27.055134   0.000000
   28       27.102974   0.000000
   29       27.246535   0.000000
   30       15.966591   0.000000
   31       30.019806   0.000000
   32       25.828740   0.000000
   33       30.842365   0.000000
   34       31.228976   0.000000
   35       31.874070   0.000000
   36       37.121845   0.000000
 
 -0.9202609E-02 -0.6607176E-03  0.9863326E-02  0.1639344E-01
    1     -105.467407   1.000000
    2      -63.162060   1.000000
    3      -62.951422   1.000000
    4      -62.951343   1.000000
    5      -15.264766   1.000000
    6      -13.090039   1.000000
    7       -2.587963   1.000000
    8        1.903677   1.000000
    9        1.915385   1.000000
   10        1.984906   1.000000
   11        2.121567   1.000000
   12        3.184459   1.000000
   13        3.191041   1.000000
   14        4.037813   1.000000
   15        4.041129   1.000000
   16        4.775705   1.000000
   17        4.777441   1.000000
   18        7.810737   0.000000
   19       11.918884   0.000000
   20       13.140476   0.000000
   21       17.537734   0.000000
   22       19.635753   0.000000
   23       21.435857   0.000000
   24       24.576717   0.000000
   25       25.863954   0.000000
   26       25.874518   0.000000
   27       27.019994   0.000000
   28       27.053157   0.000000
   29       27.233228   0.000000
   30       25.786802   0.000000
   31       29.754250   0.000000
   32       31.164534   0.000000
   33       21.531486   0.000000
   34       31.866292   0.000000
   35       22.474712   0.000000
   36       29.372944   0.000000
 
 -0.6607176E-03 -0.9202609E-02  0.9863326E-02  0.1639344E-01
    1     -105.467407   1.000000
    2      -63.162060   1.000000
    3      -62.951422   1.000000
    4      -62.951343   1.000000
    5      -15.264766   1.000000
    6      -13.090039   1.000000
    7       -2.587963   1.000000
    8        1.903677   1.000000
    9        1.915385   1.000000
   10        1.984906   1.000000
   11        2.121567   1.000000
   12        3.184459   1.000000
   13        3.191041   1.000000
   14        4.037813   1.000000
   15        4.041129   1.000000
   16        4.775705   1.000000
   17        4.777441   1.000000
   18        7.810737   0.000000
   19       11.918884   0.000000
   20       13.140476   0.000000
   21       17.537724   0.000000
   22       19.642618   0.000000
   23       24.661197   0.000000
   24       22.948179   0.000000
   25       25.841706   0.000000
   26       25.782403   0.000000
   27       27.019723   0.000000
   28       27.053148   0.000000
   29       27.232988   0.000000
   30       13.337377   0.000000
   31       13.872854   0.000000
   32       30.090741   0.000000
   33       31.036318   0.000000
   34       31.901951   0.000000
   35       29.725337   0.000000
   36       38.816244   0.000000
 
  0.3610228E-02 -0.1347355E-01  0.9863326E-02  0.1639344E-01
    1     -105.467412   1.000000
    2      -63.162176   1.000000
    3      -62.951458   1.000000
    4      -62.951405   1.000000
    5      -15.262741   1.000000
    6      -13.089201   1.000000
    7       -2.585998   1.000000
    8        1.873429   1.000000
    9        1.914583   1.000000
   10        1.983172   1.000000
   11        2.145055   1.000000
   12        3.179378   1.000000
   13        3.189839   1.000000
   14        4.037128   1.000000
   15        4.042387   1.000000
   16        4.774500   1.000000
   17        4.777177   1.000000
   18        7.814237   0.000000
   19       11.926303   0.000000
   20       13.145722   0.000000
   21       17.537665   0.000000
   22       19.597292   0.000000
   23       19.213611   0.000000
   24       22.093862   0.000000
   25       24.661264   0.000000
   26       25.820217   0.000000
   27       25.834905   0.000000
   28       27.055135   0.000000
   29       27.102978   0.000000
   30       27.246556   0.000000
   31       30.050158   0.000000
   32       31.039628   0.000000
   33       31.222387   0.000000
   34       17.550654   0.000000
   35       31.891388   0.000000
   36       18.589592   0.000000
 
 -0.1100772E-01  0.6076059E-02  0.4931663E-02  0.1639344E-01
    1     -105.467414   1.000000
    2      -63.162180   1.000000
    3      -62.951422   1.000000
    4      -62.951398   1.000000
    5      -15.264773   1.000000
    6      -13.090071   1.000000
    7       -2.588012   1.000000
    8        1.903446   1.000000
    9        1.915595   1.000000
   10        1.984832   1.000000
   11        2.121571   1.000000
   12        3.184448   1.000000
   13        3.191049   1.000000
   14        4.037809   1.000000
   15        4.041102   1.000000
   16        4.775703   1.000000
   17        4.777361   1.000000
   18        7.810704   0.000000
   19       11.918884   0.000000
   20       13.140437   0.000000
   21       17.537719   0.000000
   22       18.688919   0.000000
   23       20.975327   0.000000
   24       15.221552   0.000000
   25       24.661124   0.000000
   26       25.866638   0.000000
   27       25.862353   0.000000
   28       23.534660   0.000000
   29       27.021907   0.000000
   30       27.051106   0.000000
   31       27.233368   0.000000
   32       21.178541   0.000000
   33       30.099289   0.000000
   34       31.039279   0.000000
   35       31.173861   0.000000
   36       31.885279   0.000000
 
 -0.6736777E-02  0.1805114E-02  0.4931663E-02  0.1639344E-01
    1     -105.467417   1.000000
    2      -63.162185   1.000000
    3      -62.951393   1.000000
    4      -62.951385   1.000000
    5      -15.266806   1.000000
    6      -13.090943   1.000000
    7       -2.590027   1.000000
    8        1.916116   1.000000
    9        1.943148   1.000000
   10        1.986567   1.000000
   11        2.088802   1.000000
   12        3.189591   1.000000
   13        3.192248   1.000000
   14        4.038494   1.000000
   15        4.039814   1.000000
   16        4.776904   1.000000
   17        4.777549   1.000000
   18        7.807153   0.000000
   19       11.911448   0.000000
   20       13.135137   0.000000
   21       17.537765   0.000000
   22       19.648061   0.000000
   23       19.663669   0.000000
   24       21.022415   0.000000
   25       20.766188   0.000000
   26       24.661238   0.000000
   27       25.113951   0.000000
   28       25.913505   0.000000
   29       26.982545   0.000000
   30       26.995687   0.000000
   31       27.221368   0.000000
   32       30.165055   0.000000
   33       31.045894   0.000000
   34       31.109337   0.000000
   35       31.878965   0.000000
   36       34.360059   0.000000
 
  0.1805114E-02 -0.6736777E-02  0.4931663E-02  0.1639344E-01
    1     -105.467417   1.000000
    2      -63.162185   1.000000
    3      -62.951393   1.000000
    4      -62.951385   1.000000
    5      -15.266806   1.000000
    6      -13.090943   1.000000
    7       -2.590027   1.000000
    8        1.916116   1.000000
    9        1.943148   1.000000
   10        1.986567   1.000000
   11        2.088802   1.000000
   12        3.189591   1.000000
   13        3.192248   1.000000
   14        4.038494   1.000000
   15        4.039814   1.000000
   16        4.776904   1.000000
   17        4.777549   1.000000
   18        7.807153   0.000000
   19       11.911448   0.000000
   20       13.135137   0.000000
   21       17.537765   0.000000
   22       19.531635   0.000000
   23       18.014628   0.000000
   24       19.865292   0.000000
   25       24.661050   0.000000
   26       25.908323   0.000000
   27       25.888097   0.000000
   28       26.982199   0.000000
   29       26.995318   0.000000
   30       27.221085   0.000000
   31       21.949776   0.000000
   32       20.731878   0.000000
   33       30.165007   0.000000
   34       31.104431   0.000000
   35       30.663916   0.000000
   36       31.875132   0.000000
 
  0.6076059E-02 -0.1100772E-01  0.4931663E-02  0.1639344E-01
    1     -105.467414   1.000000
    2      -63.162180   1.000000
    3      -62.951422   1.000000
    4      -62.951398   1.000000
    5      -15.264773   1.000000
    6      -13.090071   1.000000
    7       -2.588012   1.000000
    8        1.903446   1.000000
    9        1.915595   1.000000
   10        1.984832   1.000000
   11        2.121571   1.000000
   12        3.184448   1.000000
   13        3.191049   1.000000
   14        4.037809   1.000000
   15        4.041102   1.000000
   16        4.775703   1.000000
   17        4.777361   1.000000
   18        7.810704   0.000000
   19       11.918884   0.000000
   20       13.140437   0.000000
   21       17.537721   0.000000
   22       19.652636   0.000000
   23       20.993488   0.000000
   24       21.254617   0.000000
   25       13.531664   0.000000
   26       24.661807   0.000000
   27       22.964156   0.000000
   28       25.824209   0.000000
   29       24.927612   0.000000
   30       27.021912   0.000000
   31       27.051106   0.000000
   32       27.233370   0.000000
   33       30.116726   0.000000
   34       31.040427   0.000000
   35       31.174019   0.000000
   36       30.928973   0.000000
 
 -0.6076059E-02  0.1100772E-01 -0.4931663E-02  0.1639344E-01
    1     -105.467414   1.000000
    2      -63.162180   1.000000
    3      -62.951422   1.000000
    4      -62.951398   1.000000
    5      -15.264773   1.000000
    6      -13.090071   1.000000
    7       -2.588012   1.000000
    8        1.903446   1.000000
    9        1.915595   1.000000
   10        1.984832   1.000000
   11        2.121571   1.000000
   12        3.184448   1.000000
   13        3.191049   1.000000
   14        4.037809   1.000000
   15        4.041102   1.000000
   16        4.775703   1.000000
   17        4.777361   1.000000
   18        7.810704   0.000000
   19       11.918884   0.000000
   20       13.140437   0.000000
   21       17.537719   0.000000
   22       19.636773   0.000000
   23       18.835180   0.000000
   24       17.734424   0.000000
   25       22.388375   0.000000
   26       24.651054   0.000000
   27       25.867749   0.000000
   28       25.871323   0.000000
   29       27.021914   0.000000
   30       27.051106   0.000000
   31       27.233368   0.000000
   32       24.007906   0.000000
   33       29.941137   0.000000
   34       31.068051   0.000000
   35       31.885896   0.000000
   36       32.142603   0.000000
 
 -0.1805114E-02  0.6736777E-02 -0.4931663E-02  0.1639344E-01
    1     -105.467417   1.000000
    2      -63.162185   1.000000
    3      -62.951393   1.000000
    4      -62.951385   1.000000
    5      -15.266806   1.000000
    6      -13.090943   1.000000
    7       -2.590027   1.000000
    8        1.916116   1.000000
    9        1.943148   1.000000
   10        1.986567   1.000000
   11        2.088802   1.000000
   12        3.189591   1.000000
   13        3.192248   1.000000
   14        4.038494   1.000000
   15        4.039814   1.000000
   16        4.776904   1.000000
   17        4.777549   1.000000
   18        7.807153   0.000000
   19       11.911448   0.000000
   20       13.135137   0.000000
   21       17.537771   0.000000
   22       19.543546   0.000000
   23       20.829136   0.000000
   24       24.645497   0.000000
   25       25.914665   0.000000
   26       25.917827   0.000000
   27       26.982540   0.000000
   28       26.995700   0.000000
   29       12.457573   0.000000
   30       27.221324   0.000000
   31       23.637935   0.000000
   32       30.164913   0.000000
   33       31.043792   0.000000
   34       31.098745   0.000000
   35       31.873317   0.000000
   36       32.817195   0.000000
 
  0.6736777E-02 -0.1805114E-02 -0.4931663E-02  0.1639344E-01
    1     -105.467417   1.000000
    2      -63.162185   1.000000
    3      -62.951393   1.000000
    4      -62.951385   1.000000
    5      -15.266806   1.000000
    6      -13.090943   1.000000
    7       -2.590027   1.000000
    8        1.916116   1.000000
    9        1.943148   1.000000
   10        1.986567   1.000000
   11        2.088802   1.000000
   12        3.189591   1.000000
   13        3.192248   1.000000
   14        4.038494   1.000000
   15        4.039814   1.000000
   16        4.776904   1.000000
   17        4.777549   1.000000
   18        7.807153   0.000000
   19       11.911448   0.000000
   20       13.135137   0.000000
   21       17.537753   0.000000
   22       19.641108   0.000000
   23       16.794405   0.000000
   24       19.409697   0.000000
   25       24.635196   0.000000
   26       25.111210   0.000000
   27       25.914902   0.000000
   28       23.645366   0.000000
   29       26.982533   0.000000