
:LABEL1: Calculations in /home/stevezhang/work/CuMO2/convergence/CuGaO2/rkmax_7-scfk_6c/CuGaO2
:LABEL2: on MZ at Tue Jun 22 14:56:45 CST 2021
:LABEL3: using WIEN2k_14.2 (Release 15/10/2014) in /home/stevezhang/wien2k/v14.2
:LABEL4: using the command: run_lapw -ec 0.000000001


            ---------
:ITE001:  1. ITERATION
            ---------

:NATO :    3 INDEPENDENT AND    4 TOTAL ATOMS IN UNITCELL
       SUBSTANCE: CuGaO2 KoehlerB86                                           

       LATTICE                      = R   
:POT  : POTENTIAL OPTION EX_PBE EC_PBE VX_PBE VC_PBE
:LAT  : LATTICE CONSTANTS=  5.63135  5.63135 32.31415
:VOL  : UNIT CELL VOLUME =     295.82013
       MODE OF CALCULATION IS       = RELA
       NON-SPINPOLARIZED CALCULATION
:IFFT  : FFT-parameters:   90   90   90 Factor: 2.00
       ATOMNUMBER=  1 Cu1        VCOUL-ZERO =  0.32687E+00
:EFG001:                        EFG         =     0.15125   *10**21  V / m**2
                               V20  TOT/SRF=     0.13099     0.36290
                               V22  TOT/SRF=     0.00000     0.00000
                               V22M TOT/SRF=     0.00000     0.00000
                               V21  TOT/SRF=     0.00000     0.00000
                               V21M TOT/SRF=     0.00000     0.00000

             -0.07563    0.00000    0.00000       -0.07563    0.00000    0.00000
              0.00000   -0.07563    0.00000        0.00000   -0.07563    0.00000
              0.00000    0.00000    0.15125        0.00000    0.00000    0.15125

         MAIN DIRECTIONS OF THE EFG   1.0000  0.0000  0.0000
                                      0.0000  1.0000  0.0000
                                      0.0000  0.0000  1.0000
:ANG001:  ANGLE WITH OLD X-AXIS =         0.0

:ETA001:                         ASYMM. ETA =     0.00000


       ATOMNUMBER=  2 Ga1        VCOUL-ZERO =  0.15891E+00
:EFG002:                        EFG         =    -0.08884   *10**21  V / m**2
                               V20  TOT/SRF=    -0.07694    -0.13787
                               V22  TOT/SRF=     0.00000     0.00000
                               V22M TOT/SRF=     0.00000     0.00000
                               V21  TOT/SRF=     0.00000     0.00000
                               V21M TOT/SRF=     0.00000     0.00000

              0.04442    0.00000    0.00000        0.04442    0.00000    0.00000
              0.00000    0.04442    0.00000        0.00000    0.04442    0.00000
              0.00000    0.00000   -0.08884        0.00000    0.00000   -0.08884

         MAIN DIRECTIONS OF THE EFG   1.0000  0.0000  0.0000
                                      0.0000  1.0000  0.0000
                                      0.0000  0.0000  1.0000
:ANG002:  ANGLE WITH OLD X-AXIS =         0.0

:ETA002:                         ASYMM. ETA =     0.00000


       ATOMNUMBER=  3 O 1        VCOUL-ZERO =  0.15857E-01
:EFG003:                        EFG         =     0.33019   *10**21  V / m**2
                               V20  TOT/SRF=     0.28595     0.35714
                               V22  TOT/SRF=     0.00000     0.00000
                               V22M TOT/SRF=     0.00000     0.00000
                               V21  TOT/SRF=     0.00000     0.00000
                               V21M TOT/SRF=     0.00000     0.00000

             -0.16509    0.00000    0.00000       -0.16509    0.00000    0.00000
              0.00000   -0.16509    0.00000        0.00000   -0.16509    0.00000
              0.00000    0.00000    0.33019        0.00000    0.00000    0.33019

         MAIN DIRECTIONS OF THE EFG   1.0000  0.0000  0.0000
                                      0.0000  1.0000  0.0000
                                      0.0000  0.0000  1.0000
:ANG003:  ANGLE WITH OLD X-AXIS =         0.0

:ETA003:                         ASYMM. ETA =     0.00000


     HELLMANN-FEYNMAN-FORCE IN mRy/a.u. = |F|  Fx       Fy             Fz
:FHF001:   1.ATOM      0.000000000      0.000000000      0.000000000      0.000000000

     HELLMANN-FEYNMAN-FORCE IN mRy/a.u. = |F|  Fx       Fy             Fz
:FHF002:   2.ATOM      0.000000000      0.000000000      0.000000000      0.000000000

     HELLMANN-FEYNMAN-FORCE IN mRy/a.u. = |F|  Fx       Fy             Fz
:FHF003:   3.ATOM    213.087916707      0.000000000      0.000000000   -213.087916707

:FIT001: LUSE= 13 SIGMA OF V-XC FIT FOR ATOM  1  0.6999039E-02
:FIT001: LUSE= 13 SIGMA OF V-XC FIT FOR ATOM  1  0.6999039E-02
:FIT002: LUSE= 13 SIGMA OF V-XC FIT FOR ATOM  2  0.6669912E-02
:FIT002: LUSE= 13 SIGMA OF V-XC FIT FOR ATOM  2  0.6669912E-02
:FIT003: LUSE= 13 SIGMA OF V-XC FIT FOR ATOM  3  0.9705174E-04
:FIT003: LUSE= 13 SIGMA OF V-XC FIT FOR ATOM  3  0.9705174E-04
:DEN  : DENSITY INTEGRAL  =         -3223.79227280   (Ry)
       ELS_POTENTIAL_AT Z=0 and Z=0.5:   0.00000   0.00000
       ELS_POTENTIAL_AT Y=0 and Y=0.5:   0.00000   0.00000
:VZERO:v0,v0c,v0x  -0.81881   0.00000  -0.81881 v5,v5c,v5x  -0.81881   0.00000  -0.81881
:VZERY:v0,v0c,v0x  -0.81881   0.00000  -0.81881 v5,v5c,v5x  -0.81881   0.00000  -0.81881
:VZERX:v0,v0c,v0x  -2.29171  -1.14635  -1.14536 v5,v5c,v5x  -0.30066   0.21428  -0.51494

          ATOMIC SPHERE DEPENDENT PARAMETERS FOR ATOM  Cu1       
:e__0001: OVERALL ENERGY PARAMETER IS    0.3000
          OVERALL BASIS SET ON ATOM IS LAPW
:E1_0001: E( 1)=    0.3000
             APW+lo
:E1_0001: E( 1)=   -4.7362   E(BOTTOM)=   -4.801   E(TOP)=   -4.671  1  2   166
             LOCAL ORBITAL
:E2_0001: E( 2)=    0.2013   E(BOTTOM)=   -0.117   E(TOP)=    0.519  0  1   131
             APW+lo
:E0_0001: E( 0)=    0.3000
             APW+lo

          ATOMIC SPHERE DEPENDENT PARAMETERS FOR ATOM  Ga1       
:e__0002: OVERALL ENERGY PARAMETER IS    0.3000
          OVERALL BASIS SET ON ATOM IS LAPW
:E2_0002: E( 2)=   -0.5107   E(BOTTOM)=   -0.722   E(TOP)=   -0.299  0  1   152
             APW+lo
:E2_0002: E( 2)=    0.7000
             LOCAL ORBITAL
:E0_0002: E( 0)=    0.3000
             APW+lo
:E1_0002: E( 1)=    0.3000
             APW+lo

          ATOMIC SPHERE DEPENDENT PARAMETERS FOR ATOM  O 1       
:e__0003: OVERALL ENERGY PARAMETER IS    0.3000
          OVERALL BASIS SET ON ATOM IS LAPW
:E0_0003: E( 0)=   -1.5500   E(BOTTOM)=   -2.801   E(TOP)= -200.000  1 -1   244
             APW+lo
:E0_0003: E( 0)=    0.7000
             LOCAL ORBITAL
:E1_0003: E( 1)=    0.3000
             APW+lo

       K=   0.00000   0.00000   0.00000            1
:RKM  : MATRIX SIZE   653LOs:  36  RKM= 6.99  WEIGHT= 1.00  PGR:    
       EIGENVALUES ARE:
:EIG00001:      -4.7288923   -4.7185001   -4.7185001   -1.1849196   -1.0676637
:EIG00006:      -0.5059835   -0.5059835   -0.4933206   -0.4654493   -0.4654493
:EIG00011:      -0.2029720    0.0445822    0.1019338    0.1019338    0.1046407
:EIG00016:       0.1046407    0.1633591    0.2440851    0.2440851    0.2914326
:EIG00021:       0.2914326    0.4650361    0.8015076    0.8093366    1.3135877
:EIG00026:       1.3494490    1.3494490    1.6232959    1.7092642    1.7092642
:EIG00031:       1.7667248    1.7736527    1.7736527    1.9021968
       ********************************************************

:KPT   :      NUMBER OF K-POINTS:    32
       Insulator, EF-inconsistency corrected
:GAP  :    0.1085 Ry =     1.476 eV   (provided you have a proper k-mesh)
         Bandranges (emin - emax) and occupancy:
:BAN00011:  11   -0.202972   -0.130590  2.00000000
:BAN00012:  12   -0.180545    0.044582  2.00000000
:BAN00013:  13   -0.093220    0.101934  2.00000000
:BAN00014:  14   -0.026845    0.101934  2.00000000
:BAN00015:  15    0.005504    0.133071  2.00000000
:BAN00016:  16    0.081326    0.138577  2.00000000
:BAN00017:  17    0.162073    0.248172  2.00000000
:BAN00018:  18    0.236321    0.267303  2.00000000
:BAN00019:  19    0.244029    0.282947  2.00000000
:BAN00020:  20    0.268462    0.294912  2.00000000
:BAN00021:  21    0.283420    0.356526  2.00000000
:BAN00022:  22    0.465036    0.827890  0.00000000
:BAN00023:  23    0.617225    0.844038  0.00000000
:BAN00024:  24    0.809337    1.090800  0.00000000
:BAN00025:  25    0.980553    1.313588  0.00000000
:BAN00026:  26    1.142394    1.351893  0.00000000
        Energy to separate low and high energystates:   -0.25297


:NOE  : NUMBER OF ELECTRONS          =  42.000

:FER  : F E R M I - ENERGY(TETRAH.M.)=   0.3565263053
:GMA  : POTENTIAL AND CHARGE CUT-OFF  12.00 Ry**.5




:POS001: ATOM   -1 X,Y,Z = 0.00000 0.00000 0.00000  MULT= 1  ZZ= 29.000  Cu1       

       LMMAX  7
       LM=   0 0  2 0  4 0  4 3  6 0  6 3  6 6

:CHA001: TOTAL VALENCE CHARGE INSIDE SPHERE   1 =  15.5278    (RMT=  2.0000 )
:PCS001: PARTIAL CHARGES SPHERE =  1 S,P,D,F,PZ,PXY, D-Z2,D-XY,X2Y2,D-XZ,YZ 
:QTL001: 0.2258 6.1264 9.1499 0.0189 2.1022 4.0242 0.0000 1.6889 3.7001 3.7610 0.0000 0.0000
        Q-s-low E-s-low   Q-p-low E-p-low   Q-d-low E-d-low   Q-f-low E-f-low
:EPL001:  0.0209 -0.9534    6.0064 -4.7083    0.0295 -0.9141    0.0037 -1.0025
        Q-s-hi  E-s-hi    Q-p-hi  E-p-hi    Q-d-hi  E-d-hi    Q-f-hi  E-f-hi 
:EPH001:  0.2049  0.1065    0.1200  0.0265    9.1204  0.2442    0.0152  0.0127
:VZZ001: EFG INSIDE SPHERE   1 =    -6.933777      UP TO R =   2.00000




:POS002: ATOM   -2 X,Y,Z = 0.50000 0.50000 0.50000  MULT= 1  ZZ= 31.000  Ga1       

       LMMAX  7
       LM=   0 0  2 0  4 0  4 3  6 0  6 3  6 6

:CHA002: TOTAL VALENCE CHARGE INSIDE SPHERE   2 =  10.5513    (RMT=  2.0000 )
:PCS002: PARTIAL CHARGES SPHERE =  2 S,P,D,F,PZ,PXY, D-Z2,D-XY,X2Y2,D-XZ,YZ 
:QTL002: 0.3321 0.3122 9.8667 0.0315 0.0910 0.2212 0.0000 1.9560 3.9482 3.9624 0.0000 0.0000
        Q-s-low E-s-low   Q-p-low E-p-low   Q-d-low E-d-low   Q-f-low E-f-low
:EPL002:  0.0467 -1.0530    0.0465 -1.0245    9.3593 -0.4806    0.0050 -1.0439
        Q-s-hi  E-s-hi    Q-p-hi  E-p-hi    Q-d-hi  E-d-hi    Q-f-hi  E-f-hi 
:EPH002:  0.2854 -0.1377    0.2657 -0.0210    0.5074  0.0016    0.0264  0.0291
:VZZ002: EFG INSIDE SPHERE   2 =     3.453164      UP TO R =   2.00000




:POS003: ATOM   -3 X,Y,Z = 0.10802 0.10802 0.10802  MULT= 2  ZZ=  8.000  O 1       

       LMMAX 12
       LM=   0 0  1 0  2 0  3 0  3 3  4 0  4 3  5 0  5 3  6 0  6 3  6 6

:CHA003: TOTAL VALENCE CHARGE INSIDE SPHERE   3 =   4.9124    (RMT=  1.4000 )
:PCS003: PARTIAL CHARGES SPHERE =  3 S,P,D,F,PZ,PXY, D-Z2,D-XY,X2Y2,D-XZ,YZ 
:QTL003: 1.4322 3.4717 0.0071 0.0010 1.1359 2.3358 0.0000 0.0017 0.0015 0.0039 0.0000 0.0000
        Q-s-low E-s-low   Q-p-low E-p-low   Q-d-low E-d-low   Q-f-low E-f-low
:EPL003:  1.3881 -1.0832    0.1002 -0.5021    0.0020 -0.6248    0.0004 -0.7662
        Q-s-hi  E-s-hi    Q-p-hi  E-p-hi    Q-d-hi  E-d-hi    Q-f-hi  E-f-hi 
:EPH003:  0.0442 -0.0479    3.3715  0.0124    0.0052  0.1431    0.0007  0.1707
:VZZ003: EFG INSIDE SPHERE   3 =     2.403867      UP TO R =   1.40000

:CHA  : TOTAL VALENCE CHARGE INSIDE UNIT CELL =      42.000000

:SUM  : SUM OF EIGENVALUES =         -35.069818504


        1.ATOM      Cu1                   5 CORE STATES
:1S 001: 1S                -649.794885748 Ry
:2S 001: 2S                 -77.519254341 Ry
:2PP001: 2P*                -67.833418386 Ry
:2P 001: 2P                 -66.327493435 Ry
:3S 001: 3S                  -7.858144467 Ry

        2.ATOM      Ga1                   7 CORE STATES
:1S 002: 1S                -750.711796280 Ry
:2S 002: 2S                 -91.781665164 Ry
:2PP002: 2P*                -81.134872510 Ry
:2P 002: 2P                 -79.102356082 Ry
:3S 002: 3S                  -9.930621924 Ry
:3PP002: 3P*                 -6.491717712 Ry
:3P 002: 3P                  -6.225687416 Ry

        3.ATOM      O 1                   1 CORE STATES
       CORE-FORCE in mRy/a.u. = |F|      Fx             Fy             Fz
:FCO003:   3.ATOM     53.665721077      0.000000000      0.000000000     53.665721077

:1S 003: 1S                 -37.003841479 Ry
:CINT001 Core Integral Atom   1   11.998563
:CINT002 Core Integral Atom   2   17.993463
:CINT003 Core Integral Atom   3    1.999999

       DENSITY AT NUCLEUS
        JATOM        VALENCE       SEMI-CORE          CORE           TOTAL
:RTO001:   1        6.362855        0.000000    22630.834342    22637.197197
:RTO002:   2        9.282196        0.000000    27809.840362    27819.122559
:RTO003:   3       15.777349        0.000000      303.980229      319.757577
     
       CHARGES OF NEW CHARGE DENSITY
:NTO   : INTERSTITIAL CHARGE =     6.096114
:NTO001: CHARGE SPHERE  1    =    27.526359
:NTO002: CHARGE SPHERE  2    =    28.544812
:NTO003: CHARGE SPHERE  3    =     6.912353

:NEC01: NUCLEAR AND ELECTRONIC CHARGE     76.00000    75.99199
     
       CHARGES OF OLD CHARGE DENSITY
:OTO   : INTERSTITIAL CHARGE =     7.030466
:OTO001: CHARGE SPHERE  1    =    27.262855
:OTO002: CHARGE SPHERE  2    =    29.078303
:OTO003: CHARGE SPHERE  3    =     6.314868

:NEC02: NUCLEAR AND ELECTRONIC CHARGE     76.00000    76.00136
     
       CONVERGENCE TEST
:DTO001: DIFFERENCE IN SPHERE  1 =  0.6960100
:DTO002: DIFFERENCE IN SPHERE  2 =  0.3762111
:DTO003: DIFFERENCE IN SPHERE  3 =  0.7583267

:DIS  :  CHARGE DISTANCE       ( 0.7583267 for atom    3 spin 1)      0.6472186
:BIG check (qbig,qrms,qtot)    0.253D+00   0.471D+00   0.647D+00
 
******************************************************
* MULTISECANT MIXING VER6 RELEASE 6.0 OPTIONS        *
* Standard Mode with controls                        *
* Regularization       1.000E-06                     *
* Trust Region Control Active                        *
* Max Number of Memory Steps    8                    *
******************************************************
 
:PLANE:  INTERSTITIAL TOTAL      1.75664 DISTAN  2.805E+01 % 
:CHARG:  CLM CHARGE   /ATOM     75.91131 DISTAN  1.287E+00 % 
:REDuction and DMIX in Broyd:    0.7735    0.1547
:DIRM :  MEMORY  0/ 8 RESCALES   1.00
:MIX  :   PRATT  REGULARIZATION: 1.00E-06  GREED: 0.035
     
       CHARGES OF MIXED CHARGE DENSITY
:CTO   : INTERSTITIAL CHARGE =     6.996731
:CTO001: CHARGE SPHERE  1    =    27.272078
:CTO002: CHARGE SPHERE  2    =    29.059631
:CTO003: CHARGE SPHERE  3    =     6.335780

:NEC03: NUCLEAR AND ELECTRONIC CHARGE     76.00000    76.00000

PW CHANGE     H    K    L       Current     Change     Residue
:PTO001:      0    0    0  6.75059267E-02 -2.412E-04 -6.892E-03
:PTO002:     -1   -1   -1 -2.53606090E-02  8.496E-06  2.427E-04
:PTO003:     -2   -2   -2  3.34307637E-03 -4.726E-04 -1.350E-02
:PTO004:     -1    0    0  8.59280529E-02  8.969E-04  2.562E-02
:PTO005:     -1   -1    0  8.55568229E-02 -7.085E-04 -2.024E-02
:PTO006:     -2   -1   -1 -3.15208960E-02 -1.371E-03 -3.918E-02
:PTO007:     -2   -2   -1 -7.63646480E-02 -3.835E-04 -1.096E-02
:PTO008:     -3   -3   -3  2.34873485E-02  2.407E-04  6.877E-03
:PTO009:     -3   -2   -2  3.65811793E-03  2.106E-04  6.018E-03
:PTO010:     -3   -3   -2  5.48724585E-02 -2.035E-04 -5.813E-03
:PTO011:     -1    0    1  5.29387278E-02 -2.032E-04 -5.805E-03
:PTO012:     -2   -1    0 -3.07046403E-02 -9.452E-05 -2.701E-03

:ENE  : ********** TOTAL ENERGY IN Ry =        -7499.61235802

       TOTAL FORCE IN mRy/a.u. = |F|     Fx             Fy             Fz     with/without FOR in case.in2
:FOR001:   1.ATOM          0.000          0.000          0.000          0.000 partial forces
:FOR002:   2.ATOM          0.000          0.000          0.000          0.000 partial forces
:FOR003:   3.ATOM        159.422          0.000          0.000       -159.422 partial forces
       TOTAL FORCE WITH RESPECT TO GLOBAL CARTESIAN COORDINATES:
:FCA001:   1.ATOM                         0.000          0.000          0.000 partial forces
:FCA002:   2.ATOM                         0.000          0.000          0.000 partial forces
:FCA003:   3.ATOM                         0.000          0.000       -159.422 partial forces
       TOTAL FORCE WITH RESPECT TO THE GLOBAL COORDINATE SYSTEM:
:FGL001:   1.ATOM                 0.000000000     0.000000000     0.000000000 partial forces
:FGL002:   2.ATOM                 0.000000000     0.000000000     0.000000000 partial forces
:FGL003:   3.ATOM              -159.422195630  -159.422195630  -159.422195630 partial forces


            ---------
:ITE002:  2. ITERATION
            ---------

:NATO :    3 INDEPENDENT AND    4 TOTAL ATOMS IN UNITCELL
       SUBSTANCE: CuGaO2 KoehlerB86                                           

       LATTICE                      = R   
:POT  : POTENTIAL OPTION EX_PBE EC_PBE VX_PBE VC_PBE
:LAT  : LATTICE CONSTANTS=  5.63135  5.63135 32.31415
:VOL  : UNIT CELL VOLUME =     295.82013
       MODE OF CALCULATION IS       = RELA
       NON-SPINPOLARIZED CALCULATION
:IFFT  : FFT-parameters:   90   90   90 Factor: 2.00
       ATOMNUMBER=  1 Cu1        VCOUL-ZERO =  0.32706E+00
:EFG001:                        EFG         =    -0.09746   *10**21  V / m**2
                               V20  TOT/SRF=    -0.08440     0.34572
                               V22  TOT/SRF=     0.00000     0.00000
                               V22M TOT/SRF=     0.00000     0.00000
                               V21  TOT/SRF=     0.00000     0.00000
                               V21M TOT/SRF=     0.00000     0.00000

              0.04873    0.00000    0.00000        0.04873    0.00000    0.00000
              0.00000    0.04873    0.00000        0.00000    0.04873    0.00000
              0.00000    0.00000   -0.09746        0.00000    0.00000   -0.09746

         MAIN DIRECTIONS OF THE EFG   1.0000  0.0000  0.0000
                                      0.0000  1.0000  0.0000
                                      0.0000  0.0000  1.0000
:ANG001:  ANGLE WITH OLD X-AXIS =         0.0

:ETA001:                         ASYMM. ETA =     0.00000


       ATOMNUMBER=  2 Ga1        VCOUL-ZERO =  0.15393E+00
:EFG002:                        EFG         =     0.03289   *10**21  V / m**2
                               V20  TOT/SRF=     0.02848    -0.13327
                               V22  TOT/SRF=     0.00000     0.00000
                               V22M TOT/SRF=     0.00000     0.00000
                               V21  TOT/SRF=     0.00000     0.00000
                               V21M TOT/SRF=     0.00000     0.00000

             -0.01645    0.00000    0.00000       -0.01645    0.00000    0.00000
              0.00000   -0.01645    0.00000        0.00000   -0.01645    0.00000
              0.00000    0.00000    0.03289        0.00000    0.00000    0.03289

         MAIN DIRECTIONS OF THE EFG   1.0000  0.0000  0.0000
                                      0.0000  1.0000  0.0000
                                      0.0000  0.0000  1.0000
:ANG002:  ANGLE WITH OLD X-AXIS =         0.0

:ETA002:                         ASYMM. ETA =     0.00000


       ATOMNUMBER=  3 O 1        VCOUL-ZERO =  0.26648E-01
:EFG003:                        EFG         =     0.41252   *10**21  V / m**2
                               V20  TOT/SRF=     0.35726     0.35228
                               V22  TOT/SRF=     0.00000     0.00000
                               V22M TOT/SRF=     0.00000     0.00000
                               V21  TOT/SRF=     0.00000     0.00000
                               V21M TOT/SRF=     0.00000     0.00000

             -0.20626    0.00000    0.00000       -0.20626    0.00000    0.00000
              0.00000   -0.20626    0.00000        0.00000   -0.20626    0.00000
              0.00000    0.00000    0.41252        0.00000    0.00000    0.41252

         MAIN DIRECTIONS OF THE EFG   1.0000  0.0000  0.0000
                                      0.0000  1.0000  0.0000
                                      0.0000  0.0000  1.0000
:ANG003:  ANGLE WITH OLD X-AXIS =         0.0

:ETA003:                         ASYMM. ETA =     0.00000


     HELLMANN-FEYNMAN-FORCE IN mRy/a.u. = |F|  Fx       Fy             Fz
:FHF001:   1.ATOM      0.000000000      0.000000000      0.000000000      0.000000000

     HELLMANN-FEYNMAN-FORCE IN mRy/a.u. = |F|  Fx       Fy             Fz
:FHF002:   2.ATOM      0.000000000      0.000000000      0.000000000      0.000000000

     HELLMANN-FEYNMAN-FORCE IN mRy/a.u. = |F|  Fx       Fy             Fz
:FHF003:   3.ATOM    216.778954746      0.000000000      0.000000000   -216.778954746

:FIT001: LUSE= 13 SIGMA OF V-XC FIT FOR ATOM  1  0.6968011E-02
:FIT001: LUSE= 13 SIGMA OF V-XC FIT FOR ATOM  1  0.6968011E-02
:FIT002: LUSE= 13 SIGMA OF V-XC FIT FOR ATOM  2  0.7015824E-02
:FIT002: LUSE= 13 SIGMA OF V-XC FIT FOR ATOM  2  0.7015824E-02
:FIT003: LUSE= 13 SIGMA OF V-XC FIT FOR ATOM  3  0.9999998E-04
:FIT003: LUSE= 13 SIGMA OF V-XC FIT FOR ATOM  3  0.9999998E-04
:DEN  : DENSITY INTEGRAL  =         -3224.34117962   (Ry)
       ELS_POTENTIAL_AT Z=0 and Z=0.5:   0.00000   0.00000
       ELS_POTENTIAL_AT Y=0 and Y=0.5:   0.00000   0.00000
:VZERO:v0,v0c,v0x  -0.81687   0.00000  -0.81687 v5,v5c,v5x  -0.81687   0.00000  -0.81687
:VZERY:v0,v0c,v0x  -0.81687   0.00000  -0.81687 v5,v5c,v5x  -0.81687   0.00000  -0.81687
:VZERX:v0,v0c,v0x  -2.27537  -1.12972  -1.14565 v5,v5c,v5x  -0.30827   0.20065  -0.50892

          ATOMIC SPHERE DEPENDENT PARAMETERS FOR ATOM  Cu1       
:e__0001: OVERALL ENERGY PARAMETER IS    0.1924
          OVERALL BASIS SET ON ATOM IS LAPW
:E1_0001: E( 1)=    0.1924
             APW+lo
:E1_0001: E( 1)=   -4.7176   E(BOTTOM)=   -4.783   E(TOP)=   -4.652  1  2   158
             LOCAL ORBITAL
:E2_0001: E( 2)=    0.2172   E(BOTTOM)=   -0.103   E(TOP)=    0.538  0  1   134
             APW+lo
:E0_0001: E( 0)=    0.1924
             APW+lo

          ATOMIC SPHERE DEPENDENT PARAMETERS FOR ATOM  Ga1       
:e__0002: OVERALL ENERGY PARAMETER IS    0.1924
          OVERALL BASIS SET ON ATOM IS LAPW
:E2_0002: E( 2)=   -0.5225   E(BOTTOM)=   -0.733   E(TOP)=   -0.312  0  1   150
             APW+lo
:E2_0002: E( 2)=    0.5924
             LOCAL ORBITAL
:E0_0002: E( 0)=    0.1924
             APW+lo
:E1_0002: E( 1)=    0.1924
             APW+lo

          ATOMIC SPHERE DEPENDENT PARAMETERS FOR ATOM  O 1       
:e__0003: OVERALL ENERGY PARAMETER IS    0.1924
          OVERALL BASIS SET ON ATOM IS LAPW
:E0_0003: E( 0)=   -1.5500   E(BOTTOM)=   -2.783   E(TOP)= -200.000  1 -1   242
             APW+lo
:E0_0003: E( 0)=    0.5924
             LOCAL ORBITAL
:E1_0003: E( 1)=    0.1924
             APW+lo

       K=   0.00000   0.00000   0.00000            1
:RKM  : MATRIX SIZE   653LOs:  36  RKM= 6.99  WEIGHT= 1.00  PGR:    
       EIGENVALUES ARE:
:EIG00001:      -4.7098309   -4.7000051   -4.7000051   -1.1720017   -1.0522811
:EIG00006:      -0.5159319   -0.5159319   -0.5029880   -0.4773132   -0.4773132
:EIG00011:      -0.1940720    0.0600525    0.1175853    0.1175853    0.1184438
:EIG00016:       0.1184438    0.1710611    0.2589549    0.2589549    0.3077855
:EIG00021:       0.3077855    0.4741510    0.8096459    0.8113840    1.3154914
:EIG00026:       1.3477337    1.3477337    1.6255885    1.7096520    1.7096520
:EIG00031:       1.7651270    1.7774033    1.7774033
       ********************************************************

:KPT   :      NUMBER OF K-POINTS:    32
       Insulator, EF-inconsistency corrected
:GAP  :    0.1016 Ry =     1.382 eV   (provided you have a proper k-mesh)
         Bandranges (emin - emax) and occupancy:
:BAN00011:  11   -0.194072   -0.120587  2.00000000
:BAN00012:  12   -0.168939    0.060053  2.00000000
:BAN00013:  13   -0.082199    0.117585  2.00000000
:BAN00014:  14   -0.013438    0.117585  2.00000000
:BAN00015:  15    0.019512    0.146949  2.00000000
:BAN00016:  16    0.095434    0.152842  2.00000000
:BAN00017:  17    0.170585    0.262643  2.00000000
:BAN00018:  18    0.249355    0.283114  2.00000000
:BAN00019:  19    0.258898    0.298762  2.00000000
:BAN00020:  20    0.284407    0.311433  2.00000000
:BAN00021:  21    0.298066    0.372535  2.00000000
:BAN00022:  22    0.474151    0.829335  0.00000000
:BAN00023:  23    0.630751    0.849274  0.00000000
:BAN00024:  24    0.811384    1.092524  0.00000000
:BAN00025:  25    0.982952    1.315491  0.00000000
:BAN00026:  26    1.146372    1.350370  0.00000000
        Energy to separate low and high energystates:   -0.24407


:NOE  : NUMBER OF ELECTRONS          =  42.000

:FER  : F E R M I - ENERGY(TETRAH.M.)=   0.3725347939
:GMA  : POTENTIAL AND CHARGE CUT-OFF  12.00 Ry**.5




:POS001: ATOM   -1 X,Y,Z = 0.00000 0.00000 0.00000  MULT= 1  ZZ= 29.000  Cu1       

       LMMAX  7
       LM=   0 0  2 0  4 0  4 3  6 0  6 3  6 6

:CHA001: TOTAL VALENCE CHARGE INSIDE SPHERE   1 =  15.5038    (RMT=  2.0000 )
:PCS001: PARTIAL CHARGES SPHERE =  1 S,P,D,F,PZ,PXY, D-Z2,D-XY,X2Y2,D-XZ,YZ 
:QTL001: 0.2323 6.1291 9.1169 0.0189 2.1033 4.0258 0.0000 1.6705 3.6911 3.7553 0.0000 0.0000
        Q-s-low E-s-low   Q-p-low E-p-low   Q-d-low E-d-low   Q-f-low E-f-low
:EPL001:  0.0207 -0.9523    6.0061 -4.6897    0.0285 -0.9194    0.0036 -0.9946
        Q-s-hi  E-s-hi    Q-p-hi  E-p-hi    Q-d-hi  E-d-hi    Q-f-hi  E-f-hi 
:EPH001:  0.2116  0.1190    0.1230  0.0416    9.0883  0.2592    0.0152  0.0270
:VZZ001: EFG INSIDE SPHERE   1 =    -6.550886      UP TO R =   2.00000




:POS002: ATOM   -2 X,Y,Z = 0.50000 0.50000 0.50000  MULT= 1  ZZ= 31.000  Ga1       

       LMMAX  7
       LM=   0 0  2 0  4 0  4 3  6 0  6 3  6 6

:CHA002: TOTAL VALENCE CHARGE INSIDE SPHERE   2 =  10.5744    (RMT=  2.0000 )
:PCS002: PARTIAL CHARGES SPHERE =  2 S,P,D,F,PZ,PXY, D-Z2,D-XY,X2Y2,D-XZ,YZ 
:QTL002: 0.3420 0.3208 9.8708 0.0317 0.0938 0.2271 0.0000 1.9567 3.9499 3.9642 0.0000 0.0000
        Q-s-low E-s-low   Q-p-low E-p-low   Q-d-low E-d-low   Q-f-low E-f-low
:EPL002:  0.0472 -1.0528    0.0471 -1.0171    9.4011 -0.4915    0.0050 -1.0323
        Q-s-hi  E-s-hi    Q-p-hi  E-p-hi    Q-d-hi  E-d-hi    Q-f-hi  E-f-hi 
:EPH002:  0.2948 -0.1282    0.2737 -0.0081    0.4698  0.0167    0.0267  0.0429
:VZZ002: EFG INSIDE SPHERE   2 =     3.507316      UP TO R =   2.00000




:POS003: ATOM   -3 X,Y,Z = 0.10802 0.10802 0.10802  MULT= 2  ZZ=  8.000  O 1       

       LMMAX 12
       LM=   0 0  1 0  2 0  3 0  3 3  4 0  4 3  5 0  5 3  6 0  6 3  6 6

:CHA003: TOTAL VALENCE CHARGE INSIDE SPHERE   3 =   4.8745    (RMT=  1.4000 )
:PCS003: PARTIAL CHARGES SPHERE =  3 S,P,D,F,PZ,PXY, D-Z2,D-XY,X2Y2,D-XZ,YZ 
:QTL003: 1.4282 3.4377 0.0072 0.0011 1.1250 2.3127 0.0000 0.0016 0.0016 0.0040 0.0000 0.0000
        Q-s-low E-s-low   Q-p-low E-p-low   Q-d-low E-d-low   Q-f-low E-f-low
:EPL003:  1.3823 -1.0680    0.0898 -0.5146    0.0020 -0.6361    0.0004 -0.7766
        Q-s-hi  E-s-hi    Q-p-hi  E-p-hi    Q-d-hi  E-d-hi    Q-f-hi  E-f-hi 
:EPH003:  0.0459 -0.0397    3.3479  0.0255    0.0053  0.1565    0.0007  0.1855
:VZZ003: EFG INSIDE SPHERE   3 =     2.338923      UP TO R =   1.40000

:CHA  : TOTAL VALENCE CHARGE INSIDE UNIT CELL =      42.000000

:SUM  : SUM OF EIGENVALUES =         -34.709231433


        1.ATOM      Cu1                   5 CORE STATES
:1S 001: 1S                -649.765264391 Ry
:2S 001: 2S                 -77.489789129 Ry
:2PP001: 2P*                -67.803718725 Ry
:2P 001: 2P                 -66.297819428 Ry
:3S 001: 3S                  -7.838719307 Ry

        2.ATOM      Ga1                   7 CORE STATES
:1S 002: 1S                -750.727970624 Ry
:2S 002: 2S                 -91.796576751 Ry
:2PP002: 2P*                -81.149956034 Ry
:2P 002: 2P                 -79.117417934 Ry
:3S 002: 3S                  -9.943517163 Ry
:3PP002: 3P*                 -6.504499707 Ry
:3P 002: 3P                  -6.238416785 Ry

        3.ATOM      O 1                   1 CORE STATES
       CORE-FORCE in mRy/a.u. = |F|      Fx             Fy             Fz
:FCO003:   3.ATOM     54.282868348      0.000000000      0.000000000     54.282868348

:1S 003: 1S                 -36.967600434 Ry
:CINT001 Core Integral Atom   1   11.998552
:CINT002 Core Integral Atom   2   17.993488
:CINT003 Core Integral Atom   3    1.999999

       DENSITY AT NUCLEUS
        JATOM        VALENCE       SEMI-CORE          CORE           TOTAL
:RTO001:   1        6.568797        0.000000    22630.571619    22637.140416
:RTO002:   2        9.628480        0.000000    27809.921634    27819.550114
:RTO003:   3       15.693176        0.000000      303.965540      319.658716
     
       CHARGES OF NEW CHARGE DENSITY
:NTO   : INTERSTITIAL CHARGE =     6.172869
:NTO001: CHARGE SPHERE  1    =    27.502369
:NTO002: CHARGE SPHERE  2    =    28.567856
:NTO003: CHARGE SPHERE  3    =     6.874455

:NEC01: NUCLEAR AND ELECTRONIC CHARGE     76.00000    75.99201
     
       CHARGES OF OLD CHARGE DENSITY
:OTO   : INTERSTITIAL CHARGE =     6.996731
:OTO001: CHARGE SPHERE  1    =    27.272078
:OTO002: CHARGE SPHERE  2    =    29.059631
:OTO003: CHARGE SPHERE  3    =     6.335780

:NEC02: NUCLEAR AND ELECTRONIC CHARGE     76.00000    76.00000
     
       CONVERGENCE TEST
:DTO001: DIFFERENCE IN SPHERE  1 =  0.5799307
:DTO002: DIFFERENCE IN SPHERE  2 =  0.3476131
:DTO003: DIFFERENCE IN SPHERE  3 =  0.6763415

:DIS  :  CHARGE DISTANCE       ( 0.6763415 for atom    3 spin 1)      0.5700567
:BIG check (qbig,qrms,qtot)    0.225D+00   0.414D+00   0.570D+00
 
******************************************************
* MULTISECANT MIXING VER6 RELEASE 6.0 OPTIONS        *
* Standard Mode with controls                        *
* Regularization       1.000E-06                     *
* Trust Region Control Active                        *
* Max Number of Memory Steps    8                    *
******************************************************
 
:PLANE:  INTERSTITIAL TOTAL      1.75640 DISTAN  2.669E+01 % 
:CHARG:  CLM CHARGE   /ATOM     75.91552 DISTAN  1.158E+00 % 
:REDuction and DMIX in Broyd:    0.8155    0.1631
 
 Step History DMIX, Red, Pred, Trust, FRMS, FABS
  2  3.5000E-02  1.0000E+00  1.0000E+00  1.0000E+00
  
:DIRM :  MEMORY  1/ 8 RESCALES   5.78
:MIX  :   PRATT  REGULARIZATION: 1.00E-06  GREED: 0.088  Expand 2.50  0.09                
     
       CHARGES OF MIXED CHARGE DENSITY
:CTO   : INTERSTITIAL CHARGE =     6.915795
:CTO001: CHARGE SPHERE  1    =    27.295134
:CTO002: CHARGE SPHERE  2    =    29.012951
:CTO003: CHARGE SPHERE  3    =     6.388060

:NEC03: NUCLEAR AND ELECTRONIC CHARGE     76.00000    76.00000

PW CHANGE     H    K    L       Current     Change     Residue
:PTO001:      0    0    0  6.69028836E-02 -6.030E-04 -6.377E-03
:PTO002:     -1   -1   -1 -2.53393686E-02  2.124E-05  4.166E-04
:PTO003:     -2   -2   -2  2.16155779E-03 -1.182E-03 -1.272E-02
:PTO004:     -1    0    0  8.81702320E-02  2.242E-03  2.416E-02
:PTO005:     -1   -1    0  8.37855172E-02 -1.771E-03 -1.957E-02
:PTO006:     -2   -1   -1 -3.49490435E-02 -3.428E-03 -3.725E-02
:PTO007:     -2   -2   -1 -7.73235044E-02 -9.589E-04 -1.002E-02
:PTO008:     -3   -3   -3  2.40890574E-02  6.017E-04  6.501E-03
:PTO009:     -3   -2   -2  4.18467747E-03  5.266E-04  5.832E-03
:PTO010:     -3   -3   -2  5.43637804E-02 -5.087E-04 -5.950E-03
:PTO011:     -1    0    1  5.24307503E-02 -5.080E-04 -6.162E-03
:PTO012:     -2   -1    0 -3.09409468E-02 -2.363E-04 -2.343E-03

:ENE  : ********** TOTAL ENERGY IN Ry =        -7499.57545304

       TOTAL FORCE IN mRy/a.u. = |F|     Fx             Fy             Fz     with/without FOR in case.in2
:FOR001:   1.ATOM          0.000          0.000          0.000          0.000 partial forces
:FOR002:   2.ATOM          0.000          0.000          0.000          0.000 partial forces
:FOR003:   3.ATOM        162.496          0.000          0.000       -162.496 partial forces
       TOTAL FORCE WITH RESPECT TO GLOBAL CARTESIAN COORDINATES:
:FCA001:   1.ATOM                         0.000          0.000          0.000 partial forces
:FCA002:   2.ATOM                         0.000          0.000          0.000 partial forces
:FCA003:   3.ATOM                         0.000          0.000       -162.496 partial forces
       TOTAL FORCE WITH RESPECT TO THE GLOBAL COORDINATE SYSTEM:
:FGL001:   1.ATOM                 0.000000000     0.000000000     0.000000000 partial forces
:FGL002:   2.ATOM                 0.000000000     0.000000000     0.000000000 partial forces
:FGL003:   3.ATOM              -162.496086398  -162.496086398  -162.496086398 partial forces


            ---------
:ITE003:  3. ITERATION
            ---------

:NATO :    3 INDEPENDENT AND    4 TOTAL ATOMS IN UNITCELL
       SUBSTANCE: CuGaO2 KoehlerB86                                           

       LATTICE                      = R   
:POT  : POTENTIAL OPTION EX_PBE EC_PBE VX_PBE VC_PBE
:LAT  : LATTICE CONSTANTS=  5.63135  5.63135 32.31415
:VOL  : UNIT CELL VOLUME =     295.82013
       MODE OF CALCULATION IS       = RELA
       NON-SPINPOLARIZED CALCULATION
:IFFT  : FFT-parameters:   90   90   90 Factor: 2.00
       ATOMNUMBER=  1 Cu1        VCOUL-ZERO =  0.32742E+00
:EFG001:                        EFG         =    -0.71970   *10**21  V / m**2
                               V20  TOT/SRF=    -0.62328     0.30235
                               V22  TOT/SRF=     0.00000     0.00000
                               V22M TOT/SRF=     0.00000     0.00000
                               V21  TOT/SRF=     0.00000     0.00000
                               V21M TOT/SRF=     0.00000     0.00000

              0.35985    0.00000    0.00000        0.35985    0.00000    0.00000
              0.00000    0.35985    0.00000        0.00000    0.35985    0.00000
              0.00000    0.00000   -0.71970        0.00000    0.00000   -0.71970

         MAIN DIRECTIONS OF THE EFG   1.0000  0.0000  0.0000
                                      0.0000  1.0000  0.0000
                                      0.0000  0.0000  1.0000
:ANG001:  ANGLE WITH OLD X-AXIS =         0.0

:ETA001:                         ASYMM. ETA =     0.00000


       ATOMNUMBER=  2 Ga1        VCOUL-ZERO =  0.14175E+00
:EFG002:                        EFG         =     0.33753   *10**21  V / m**2
                               V20  TOT/SRF=     0.29231    -0.12148
                               V22  TOT/SRF=     0.00000     0.00000
                               V22M TOT/SRF=     0.00000     0.00000
                               V21  TOT/SRF=     0.00000     0.00000
                               V21M TOT/SRF=     0.00000     0.00000

             -0.16876    0.00000    0.00000       -0.16876    0.00000    0.00000
              0.00000   -0.16876    0.00000        0.00000   -0.16876    0.00000
              0.00000    0.00000    0.33753        0.00000    0.00000    0.33753

         MAIN DIRECTIONS OF THE EFG   1.0000  0.0000  0.0000
                                      0.0000  1.0000  0.0000
                                      0.0000  0.0000  1.0000
:ANG002:  ANGLE WITH OLD X-AXIS =         0.0

:ETA002:                         ASYMM. ETA =     0.00000


       ATOMNUMBER=  3 O 1        VCOUL-ZERO =  0.53925E-01
:EFG003:                        EFG         =     0.61849   *10**21  V / m**2
                               V20  TOT/SRF=     0.53563     0.34022
                               V22  TOT/SRF=     0.00000     0.00000
                               V22M TOT/SRF=     0.00000     0.00000
                               V21  TOT/SRF=     0.00000     0.00000
                               V21M TOT/SRF=     0.00000     0.00000

             -0.30925    0.00000    0.00000       -0.30925    0.00000    0.00000
              0.00000   -0.30925    0.00000        0.00000   -0.30925    0.00000
              0.00000    0.00000    0.61849        0.00000    0.00000    0.61849

         MAIN DIRECTIONS OF THE EFG   1.0000  0.0000  0.0000
                                      0.0000  1.0000  0.0000
                                      0.0000  0.0000  1.0000
:ANG003:  ANGLE WITH OLD X-AXIS =         0.0

:ETA003:                         ASYMM. ETA =     0.00000


     HELLMANN-FEYNMAN-FORCE IN mRy/a.u. = |F|  Fx       Fy             Fz
:FHF001:   1.ATOM      0.000000000      0.000000000      0.000000000      0.000000000

     HELLMANN-FEYNMAN-FORCE IN mRy/a.u. = |F|  Fx       Fy             Fz
:FHF002:   2.ATOM      0.000000000      0.000000000      0.000000000      0.000000000

     HELLMANN-FEYNMAN-FORCE IN mRy/a.u. = |F|  Fx       Fy             Fz
:FHF003:   3.ATOM    225.067521770      0.000000000      0.000000000   -225.067521770

:FIT001: LUSE= 13 SIGMA OF V-XC FIT FOR ATOM  1  0.6884152E-02
:FIT001: LUSE= 13 SIGMA OF V-XC FIT FOR ATOM  1  0.6884152E-02
:FIT002: LUSE= 13 SIGMA OF V-XC FIT FOR ATOM  2  0.7943930E-02
:FIT002: LUSE= 13 SIGMA OF V-XC FIT FOR ATOM  2  0.7943930E-02
:FIT003: LUSE= 13 SIGMA OF V-XC FIT FOR ATOM  3  0.1082934E-03
:FIT003: LUSE= 13 SIGMA OF V-XC FIT FOR ATOM  3  0.1082934E-03
:DEN  : DENSITY INTEGRAL  =         -3225.73058685   (Ry)
       ELS_POTENTIAL_AT Z=0 and Z=0.5:   0.00000   0.00000
       ELS_POTENTIAL_AT Y=0 and Y=0.5:   0.00000   0.00000
:VZERO:v0,v0c,v0x  -0.81205   0.00000  -0.81205 v5,v5c,v5x  -0.81205   0.00000  -0.81205
:VZERY:v0,v0c,v0x  -0.81205   0.00000  -0.81205 v5,v5c,v5x  -0.81205   0.00000  -0.81205
:VZERX:v0,v0c,v0x  -2.23485  -1.08833  -1.14652 v5,v5c,v5x  -0.32717   0.16645  -0.49362

          ATOMIC SPHERE DEPENDENT PARAMETERS FOR ATOM  Cu1       
:e__0001: OVERALL ENERGY PARAMETER IS    0.1775
          OVERALL BASIS SET ON ATOM IS LAPW
:E1_0001: E( 1)=    0.1775
             APW+lo
:E1_0001: E( 1)=   -4.6713   E(BOTTOM)=   -4.738   E(TOP)=   -4.605  1  2   170
             LOCAL ORBITAL
:E2_0001: E( 2)=    0.2568   E(BOTTOM)=   -0.070   E(TOP)=    0.584  0  1   135
             APW+lo
:E0_0001: E( 0)=    0.1775
             APW+lo

          ATOMIC SPHERE DEPENDENT PARAMETERS FOR ATOM  Ga1       
:e__0002: OVERALL ENERGY PARAMETER IS    0.1775
          OVERALL BASIS SET ON ATOM IS LAPW
:E2_0002: E( 2)=   -0.5517   E(BOTTOM)=   -0.761   E(TOP)=   -0.343  0  1   158
             APW+lo
:E2_0002: E( 2)=    0.5775
             LOCAL ORBITAL
:E0_0002: E( 0)=    0.1775
             APW+lo
:E1_0002: E( 1)=    0.1775
             APW+lo

          ATOMIC SPHERE DEPENDENT PARAMETERS FOR ATOM  O 1       
:e__0003: OVERALL ENERGY PARAMETER IS    0.1775
          OVERALL BASIS SET ON ATOM IS LAPW
:E0_0003: E( 0)=   -1.5500   E(BOTTOM)=   -2.738   E(TOP)= -200.000  1 -1   237
             APW+lo
:E0_0003: E( 0)=    0.5775
             LOCAL ORBITAL
:E1_0003: E( 1)=    0.1775
             APW+lo

       K=   0.00000   0.00000   0.00000            1
:RKM  : MATRIX SIZE   653LOs:  36  RKM= 6.99  WEIGHT= 1.00  PGR:    
       EIGENVALUES ARE:
:EIG00001:      -4.6623041   -4.6539269   -4.6539269   -1.1398793   -1.0138191
:EIG00006:      -0.5410576   -0.5410576   -0.5280538   -0.5067179   -0.5067179
:EIG00011:      -0.1711540    0.0985306    0.1533020    0.1533020    0.1566118
:EIG00016:       0.1566118    0.1890670    0.2957247    0.2957247    0.3485085
:EIG00021:       0.3485085    0.4978513    0.8168389    0.8308517    1.3202926
:EIG00026:       1.3436267    1.3436267    1.6314276    1.7107562    1.7107562
:EIG00031:       1.7611793    1.7862683    1.7862683
       ********************************************************

:KPT   :      NUMBER OF K-POINTS:    32
       Insulator, EF-inconsistency corrected
:GAP  :    0.0857 Ry =     1.166 eV   (provided you have a proper k-mesh)
         Bandranges (emin - emax) and occupancy:
:BAN00011:  11   -0.174421   -0.095123  2.00000000
:BAN00012:  12   -0.140410    0.098531  2.00000000
:BAN00013:  13   -0.054731    0.153302  2.00000000
:BAN00014:  14    0.017221    0.153302  2.00000000
:BAN00015:  15    0.054261    0.182089  2.00000000
:BAN00016:  16    0.130237    0.189746  2.00000000
:BAN00017:  17    0.189067    0.298209  2.00000000
:BAN00018:  18    0.284869    0.322240  2.00000000
:BAN00019:  19    0.295663    0.338000  2.00000000
:BAN00020:  20    0.323959    0.352602  2.00000000
:BAN00021:  21    0.336340    0.412127  2.00000000
:BAN00022:  22    0.497851    0.833153  0.00000000
:BAN00023:  23    0.665579    0.863046  0.00000000
:BAN00024:  24    0.830852    1.097244  0.00000000
:BAN00025:  25    0.989014    1.320293  0.00000000
:BAN00026:  26    1.156660    1.346821  0.00000000
        Energy to separate low and high energystates:   -0.22442


:NOE  : NUMBER OF ELECTRONS          =  42.000

:FER  : F E R M I - ENERGY(TETRAH.M.)=   0.4121271784
:GMA  : POTENTIAL AND CHARGE CUT-OFF  12.00 Ry**.5




:POS001: ATOM   -1 X,Y,Z = 0.00000 0.00000 0.00000  MULT= 1  ZZ= 29.000  Cu1       

       LMMAX  7
       LM=   0 0  2 0  4 0  4 3  6 0  6 3  6 6

:CHA001: TOTAL VALENCE CHARGE INSIDE SPHERE   1 =  15.4395    (RMT=  2.0000 )
:PCS001: PARTIAL CHARGES SPHERE =  1 S,P,D,F,PZ,PXY, D-Z2,D-XY,X2Y2,D-XZ,YZ 
:QTL001: 0.2485 6.1364 9.0292 0.0189 2.1060 4.0303 0.0000 1.6219 3.6672 3.7401 0.0000 0.0000
        Q-s-low E-s-low   Q-p-low E-p-low   Q-d-low E-d-low   Q-f-low E-f-low
:EPL001:  0.0204 -0.9418    6.0054 -4.6434    0.0268 -0.9204    0.0035 -0.9707
        Q-s-hi  E-s-hi    Q-p-hi  E-p-hi    Q-d-hi  E-d-hi    Q-f-hi  E-f-hi 
:EPH001:  0.2281  0.1495    0.1309  0.0796    9.0024  0.2964    0.0153  0.0628
:VZZ001: EFG INSIDE SPHERE   1 =    -5.471325      UP TO R =   2.00000




:POS002: ATOM   -2 X,Y,Z = 0.50000 0.50000 0.50000  MULT= 1  ZZ= 31.000  Ga1       

       LMMAX  7
       LM=   0 0  2 0  4 0  4 3  6 0  6 3  6 6

:CHA002: TOTAL VALENCE CHARGE INSIDE SPHERE   2 =  10.6337    (RMT=  2.0000 )
:PCS002: PARTIAL CHARGES SPHERE =  2 S,P,D,F,PZ,PXY, D-Z2,D-XY,X2Y2,D-XZ,YZ 
:QTL002: 0.3678 0.3435 9.8811 0.0324 0.1012 0.2424 0.0000 1.9585 3.9542 3.9685 0.0000 0.0000
        Q-s-low E-s-low   Q-p-low E-p-low   Q-d-low E-d-low   Q-f-low E-f-low
:EPL002:  0.0493 -1.0421    0.0490 -0.9940    9.4837 -0.5189    0.0051 -1.0011
        Q-s-hi  E-s-hi    Q-p-hi  E-p-hi    Q-d-hi  E-d-hi    Q-f-hi  E-f-hi 
:EPH002:  0.3184 -0.1044    0.2945  0.0241    0.3974  0.0541    0.0274  0.0773
:VZZ002: EFG INSIDE SPHERE   2 =     3.601665      UP TO R =   2.00000




:POS003: ATOM   -3 X,Y,Z = 0.10802 0.10802 0.10802  MULT= 2  ZZ=  8.000  O 1       

       LMMAX 12
       LM=   0 0  1 0  2 0  3 0  3 3  4 0  4 3  5 0  5 3  6 0  6 3  6 6

:CHA003: TOTAL VALENCE CHARGE INSIDE SPHERE   3 =   4.7790    (RMT=  1.4000 )
:PCS003: PARTIAL CHARGES SPHERE =  3 S,P,D,F,PZ,PXY, D-Z2,D-XY,X2Y2,D-XZ,YZ 
:QTL003: 1.4179 3.3523 0.0075 0.0011 1.0979 2.2543 0.0000 0.0016 0.0016 0.0043 0.0000 0.0000
        Q-s-low E-s-low   Q-p-low E-p-low   Q-d-low E-d-low   Q-f-low E-f-low
:EPL003:  1.3674 -1.0300    0.0701 -0.5466    0.0019 -0.6647    0.0004 -0.8027
        Q-s-hi  E-s-hi    Q-p-hi  E-p-hi    Q-d-hi  E-d-hi    Q-f-hi  E-f-hi 
:EPH003:  0.0505 -0.0187    3.2822  0.0583    0.0056  0.1894    0.0007  0.2220
:VZZ003: EFG INSIDE SPHERE   3 =     2.171813      UP TO R =   1.40000

:CHA  : TOTAL VALENCE CHARGE INSIDE UNIT CELL =      42.000000

:SUM  : SUM OF EIGENVALUES =         -33.815144842


        1.ATOM      Cu1                   5 CORE STATES
:1S 001: 1S                -649.691328307 Ry
:2S 001: 2S                 -77.416243014 Ry
:2PP001: 2P*                -67.729586625 Ry
:2P 001: 2P                 -66.223751457 Ry
:3S 001: 3S                  -7.790294683 Ry

        2.ATOM      Ga1                   7 CORE STATES
:1S 002: 1S                -750.768123140 Ry
:2S 002: 2S                 -91.833572379 Ry
:2PP002: 2P*                -81.187381515 Ry
:2P 002: 2P                 -79.154789232 Ry
:3S 002: 3S                  -9.975471673 Ry
:3PP002: 3P*                 -6.536171556 Ry
:3P 002: 3P                  -6.269957123 Ry

        3.ATOM      O 1                   1 CORE STATES
       CORE-FORCE in mRy/a.u. = |F|      Fx             Fy             Fz
:FCO003:   3.ATOM     55.589457746      0.000000000      0.000000000     55.589457746

:1S 003: 1S                 -36.876691984 Ry
:CINT001 Core Integral Atom   1   11.998522
:CINT002 Core Integral Atom   2   17.993552
:CINT003 Core Integral Atom   3    1.999999

       DENSITY AT NUCLEUS
        JATOM        VALENCE       SEMI-CORE          CORE           TOTAL
:RTO001:   1        7.069907        0.000000    22629.913746    22636.983654
:RTO002:   2       10.475206        0.000000    27810.124818    27820.600025
:RTO003:   3       15.483252        0.000000      303.928825      319.412077
     
       CHARGES OF NEW CHARGE DENSITY
:NTO   : INTERSTITIAL CHARGE =     6.368814
:NTO001: CHARGE SPHERE  1    =    27.437983
:NTO002: CHARGE SPHERE  2    =    28.627262
:NTO003: CHARGE SPHERE  3    =     6.778991

:NEC01: NUCLEAR AND ELECTRONIC CHARGE     76.00000    75.99204
     
       CHARGES OF OLD CHARGE DENSITY
:OTO   : INTERSTITIAL CHARGE =     6.915795
:OTO001: CHARGE SPHERE  1    =    27.295134
:OTO002: CHARGE SPHERE  2    =    29.012951
:OTO003: CHARGE SPHERE  3    =     6.388060

:NEC02: NUCLEAR AND ELECTRONIC CHARGE     76.00000    76.00000
     
       CONVERGENCE TEST
:DTO001: DIFFERENCE IN SPHERE  1 =  0.3069749
:DTO002: DIFFERENCE IN SPHERE  2 =  0.2836024
:DTO003: DIFFERENCE IN SPHERE  3 =  0.4715582

:DIS  :  CHARGE DISTANCE       ( 0.4715582 for atom    3 spin 1)      0.3834234
:BIG check (qbig,qrms,qtot)    0.157D+00   0.278D+00   0.383D+00
 
******************************************************
* MULTISECANT MIXING VER6 RELEASE 6.0 OPTIONS        *
* Standard Mode with controls                        *
* Regularization       1.000E-06                     *
* Trust Region Control Active                        *
* Max Number of Memory Steps    8                    *
******************************************************
 
:PLANE:  INTERSTITIAL TOTAL      1.75654 DISTAN  2.333E+01 % 
:CHARG:  CLM CHARGE   /ATOM     75.92611 DISTAN  8.580E-01 % 
:REDuction and DMIX in Broyd:    0.9315    0.1863
 
 Step History DMIX, Red, Pred, Trust, FRMS, FABS
  2  3.5000E-02  1.0000E+00  1.0000E+00  1.0000E+00
  3  8.7500E-02  1.0000E+00  1.0000E+00  1.0000E+00
  
:NORMS:  Nuclear, Spectral, Froebius, Shanno-Pua   0.2650E+01  0.2641E+01  0.2641E+01  0.3208E+00
:INFO :  Number of Memory Steps    2 Skipping    0
:INFO :  SLambda=    2.6495809  Max    2.6495809

Eigenvalues, unscaled except for SY+YY
   #     SY Real        SY Imag          SS             YY         SY+YY Real      SY+YY Imag
   1   6.415462E-01   0.000000E+00   2.866558E-01   1.999981E+00   3.699808E+00   0.000000E+00
   2  -6.661338E-16   0.000000E+00   1.942890E-16   1.923118E-05   2.066399E-05   0.000000E+00
 
:INFO :  Singular value   3.700E+00 Weight  1.0000E+00 Projections  -1.730E+02  1.900E+00
:INFO :  Singular value   2.066E-05 Weight  9.9072E-01 Projections   1.704E+02  2.428E+02
 
:DIRM :  MEMORY 2/8 RESCALE   5.42 RED 0.808 PRED 1.000 NEXT 0.712
:INFO :  Blimit    1.531E+00  1.003E+00  6.461E-01  2.593E+00
:DIRP :  |MSR1|= 1.001E+00 |PRATT|= 2.223E+00 ANGLE=   1.9 DEGREES
:DIRQ :  |MSR1|= 9.521E-01 |PRATT|= 1.954E+00 ANGLE=  10.1 DEGREES
:DIR  :  |MSR1|= 1.382E+00 |PRATT|= 2.960E+00 ANGLE=   7.3 DEGREES
:MIX  :   MSE1   REGULARIZATION: 2.00E-06  GREED: 0.097  Newton 1.00  0.47                
     
       CHARGES OF MIXED CHARGE DENSITY
:CTO   : INTERSTITIAL CHARGE =     6.636796
:CTO001: CHARGE SPHERE  1    =    27.387484
:CTO002: CHARGE SPHERE  2    =    28.827926
:CTO003: CHARGE SPHERE  3    =     6.573897

:NEC03: NUCLEAR AND ELECTRONIC CHARGE     76.00000    76.00000

PW CHANGE     H    K    L       Current     Change     Residue
:PTO001:      0    0    0  6.45359588E-02 -2.367E-03 -5.076E-03
:PTO002:     -1   -1   -1 -2.51016963E-02  2.377E-04  8.692E-04
:PTO003:     -2   -2   -2 -2.78038554E-03 -4.942E-03 -1.075E-02
:PTO004:     -1    0    0  9.77574951E-02  9.587E-03  2.041E-02
:PTO005:     -1   -1    0  7.59729265E-02 -7.813E-03 -1.791E-02
:PTO006:     -2   -1   -1 -4.95541870E-02 -1.461E-02 -3.237E-02
:PTO007:     -2   -2   -1 -8.09515532E-02 -3.628E-03 -7.669E-03
:PTO008:     -3   -3   -3  2.66498274E-02  2.561E-03  5.545E-03
:PTO009:     -3   -2   -2  6.61914715E-03  2.434E-03  5.349E-03
:PTO010:     -3   -3   -2  5.18342900E-02 -2.529E-03 -6.320E-03
:PTO011:     -1    0    1  4.95473063E-02 -2.883E-03 -7.064E-03
:PTO012:     -2   -1    0 -3.17133690E-02 -7.724E-04 -1.437E-03

:ENE  : ********** TOTAL ENERGY IN Ry =        -7499.50283666

       TOTAL FORCE IN mRy/a.u. = |F|     Fx             Fy             Fz     with/without FOR in case.in2
:FOR001:   1.ATOM          0.000          0.000          0.000          0.000 partial forces
:FOR002:   2.ATOM          0.000          0.000          0.000          0.000 partial forces
:FOR003:   3.ATOM        169.478          0.000          0.000       -169.478 partial forces
       TOTAL FORCE WITH RESPECT TO GLOBAL CARTESIAN COORDINATES:
:FCA001:   1.ATOM                         0.000          0.000          0.000 partial forces
:FCA002:   2.ATOM                         0.000          0.000          0.000 partial forces
:FCA003:   3.ATOM                         0.000          0.000       -169.478 partial forces
       TOTAL FORCE WITH RESPECT TO THE GLOBAL COORDINATE SYSTEM:
:FGL001:   1.ATOM                 0.000000000     0.000000000     0.000000000 partial forces
:FGL002:   2.ATOM                 0.000000000     0.000000000     0.000000000 partial forces
:FGL003:   3.ATOM              -169.478064024  -169.478064024  -169.478064024 partial forces


            ---------
:ITE004:  4. ITERATION
            ---------

:NATO :    3 INDEPENDENT AND    4 TOTAL ATOMS IN UNITCELL
       SUBSTANCE: CuGaO2 KoehlerB86                                           

       LATTICE                      = R   
:POT  : POTENTIAL OPTION EX_PBE EC_PBE VX_PBE VC_PBE
:LAT  : LATTICE CONSTANTS=  5.63135  5.63135 32.31415
:VOL  : UNIT CELL VOLUME =     295.82013
       MODE OF CALCULATION IS       = RELA
       NON-SPINPOLARIZED CALCULATION
:IFFT  : FFT-parameters:   90   90   90 Factor: 2.00
       ATOMNUMBER=  1 Cu1        VCOUL-ZERO =  0.33286E+00
:EFG001:                        EFG         =    -3.52362   *10**21  V / m**2
                               V20  TOT/SRF=    -3.05154     0.14859
                               V22  TOT/SRF=     0.00000     0.00000
                               V22M TOT/SRF=     0.00000     0.00000
                               V21  TOT/SRF=     0.00000     0.00000
                               V21M TOT/SRF=     0.00000     0.00000

              1.76181    0.00000    0.00000        1.76181    0.00000    0.00000
              0.00000    1.76181    0.00000        0.00000    1.76181    0.00000
              0.00000    0.00000   -3.52362        0.00000    0.00000   -3.52362

         MAIN DIRECTIONS OF THE EFG   1.0000  0.0000  0.0000
                                      0.0000  1.0000  0.0000
                                      0.0000  0.0000  1.0000
:ANG001:  ANGLE WITH OLD X-AXIS =         0.0

:ETA001:                         ASYMM. ETA =     0.00000


       ATOMNUMBER=  2 Ga1        VCOUL-ZERO =  0.94012E-01
:EFG002:                        EFG         =     1.93822   *10**21  V / m**2
                               V20  TOT/SRF=     1.67855    -0.07287
                               V22  TOT/SRF=     0.00000     0.00000
                               V22M TOT/SRF=     0.00000     0.00000
                               V21  TOT/SRF=     0.00000     0.00000
                               V21M TOT/SRF=     0.00000     0.00000

             -0.96911    0.00000    0.00000       -0.96911    0.00000    0.00000
              0.00000   -0.96911    0.00000        0.00000   -0.96911    0.00000
              0.00000    0.00000    1.93822        0.00000    0.00000    1.93822

         MAIN DIRECTIONS OF THE EFG   1.0000  0.0000  0.0000
                                      0.0000  1.0000  0.0000
                                      0.0000  0.0000  1.0000
:ANG002:  ANGLE WITH OLD X-AXIS =         0.0

:ETA002:                         ASYMM. ETA =     0.00000


       ATOMNUMBER=  3 O 1        VCOUL-ZERO =  0.15630E+00
:EFG003:                        EFG         =     1.47478   *10**21  V / m**2
                               V20  TOT/SRF=     1.27719     0.29737
                               V22  TOT/SRF=     0.00000     0.00000
                               V22M TOT/SRF=     0.00000     0.00000
                               V21  TOT/SRF=     0.00000     0.00000
                               V21M TOT/SRF=     0.00000     0.00000

             -0.73739    0.00000    0.00000       -0.73739    0.00000    0.00000
              0.00000   -0.73739    0.00000        0.00000   -0.73739    0.00000
              0.00000    0.00000    1.47478        0.00000    0.00000    1.47478

         MAIN DIRECTIONS OF THE EFG   1.0000  0.0000  0.0000
                                      0.0000  1.0000  0.0000
                                      0.0000  0.0000  1.0000
:ANG003:  ANGLE WITH OLD X-AXIS =         0.0

:ETA003:                         ASYMM. ETA =     0.00000


     HELLMANN-FEYNMAN-FORCE IN mRy/a.u. = |F|  Fx       Fy             Fz
:FHF001:   1.ATOM      0.000000000      0.000000000      0.000000000      0.000000000

     HELLMANN-FEYNMAN-FORCE IN mRy/a.u. = |F|  Fx       Fy             Fz
:FHF002:   2.ATOM      0.000000000      0.000000000      0.000000000      0.000000000

     HELLMANN-FEYNMAN-FORCE IN mRy/a.u. = |F|  Fx       Fy             Fz
:FHF003:   3.ATOM    223.308951363      0.000000000      0.000000000   -223.308951363

:FIT001: LUSE= 13 SIGMA OF V-XC FIT FOR ATOM  1  0.7052785E-02
:FIT001: LUSE= 13 SIGMA OF V-XC FIT FOR ATOM  1  0.7052785E-02
:FIT002: LUSE= 13 SIGMA OF V-XC FIT FOR ATOM  2  0.1417872E-01
:FIT002: LUSE= 13 SIGMA OF V-XC FIT FOR ATOM  2  0.1417872E-01
:FIT003: LUSE= 13 SIGMA OF V-XC FIT FOR ATOM  3  0.1015147E-03
:FIT003: LUSE= 13 SIGMA OF V-XC FIT FOR ATOM  3  0.1015147E-03
:DEN  : DENSITY INTEGRAL  =         -3230.70366978   (Ry)
       ELS_POTENTIAL_AT Z=0 and Z=0.5:   0.00000   0.00000
       ELS_POTENTIAL_AT Y=0 and Y=0.5:   0.00000   0.00000
:VZERO:v0,v0c,v0x  -0.79134   0.00000  -0.79134 v5,v5c,v5x  -0.79134   0.00000  -0.79134
:VZERY:v0,v0c,v0x  -0.79134   0.00000  -0.79134 v5,v5c,v5x  -0.79134   0.00000  -0.79134
:VZERX:v0,v0c,v0x  -2.08770  -0.93707  -1.15064 v5,v5c,v5x  -0.38145   0.04191  -0.42336

          ATOMIC SPHERE DEPENDENT PARAMETERS FOR ATOM  Cu1       
:e__0001: OVERALL ENERGY PARAMETER IS    0.2121
          OVERALL BASIS SET ON ATOM IS LAPW
:E1_0001: E( 1)=    0.2121
             APW+lo
:E1_0001: E( 1)=   -4.5149   E(BOTTOM)=   -4.585   E(TOP)=   -4.445  1  2   183
             LOCAL ORBITAL
:E2_0001: E( 2)=    0.3905   E(BOTTOM)=    0.042   E(TOP)=    0.739  0  1   135
             APW+lo
:E0_0001: E( 0)=    0.2121
             APW+lo

          ATOMIC SPHERE DEPENDENT PARAMETERS FOR ATOM  Ga1       
:e__0002: OVERALL ENERGY PARAMETER IS    0.2121
          OVERALL BASIS SET ON ATOM IS LAPW
:E2_0002: E( 2)=   -0.6514   E(BOTTOM)=   -0.855   E(TOP)=   -0.448  0  1   147
             APW+lo
:E2_0002: E( 2)=    0.6121
             LOCAL ORBITAL
:E0_0002: E( 0)=    0.2121
             APW+lo
:E1_0002: E( 1)=    0.2121
             APW+lo

          ATOMIC SPHERE DEPENDENT PARAMETERS FOR ATOM  O 1       
:e__0003: OVERALL ENERGY PARAMETER IS    0.2121
          OVERALL BASIS SET ON ATOM IS LAPW
:E0_0003: E( 0)=   -1.5500   E(BOTTOM)=   -2.569   E(TOP)= -200.000  1 -1   228
             APW+lo
:E0_0003: E( 0)=    0.6121
             LOCAL ORBITAL
:E1_0003: E( 1)=    0.2121
             APW+lo

       K=   0.00000   0.00000   0.00000            1
:RKM  : MATRIX SIZE   653LOs:  36  RKM= 6.99  WEIGHT= 1.00  PGR:    
       EIGENVALUES ARE:
:EIG00001:      -4.5023765   -4.4979811   -4.4979811   -1.0275442   -0.8749439
:EIG00006:      -0.6301193   -0.6301193   -0.6201553   -0.6071165   -0.6071165
:EIG00011:      -0.0874848    0.2352870    0.2443465    0.2806721    0.2806721
:EIG00016:       0.2957389    0.2957389    0.4186478    0.4186478    0.4876802
:EIG00021:       0.4876802    0.5877366    0.8413024    0.9161564    1.3306049
:EIG00026:       1.3306049    1.3420499    1.6589137    1.7170372    1.7170372
:EIG00031:       1.7516961    1.8201971    1.8201971    1.8874791
       ********************************************************

:KPT   :      NUMBER OF K-POINTS:    32
       Insulator, EF-inconsistency corrected
:GAP  :    0.0440 Ry =     0.598 eV   (provided you have a proper k-mesh)
         Bandranges (emin - emax) and occupancy:
:BAN00011:  11   -0.113111   -0.001818  2.00000000
:BAN00012:  12   -0.044131    0.235287  2.00000000
:BAN00013:  13    0.041293    0.268491  2.00000000
:BAN00014:  14    0.118292    0.280672  2.00000000
:BAN00015:  15    0.176072    0.280672  2.00000000
:BAN00016:  16    0.252355    0.321935  2.00000000
:BAN00017:  17    0.295739    0.414211  2.00000000
:BAN00018:  18    0.403039    0.443741  2.00000000
:BAN00019:  19    0.418567    0.470236  2.00000000
:BAN00020:  20    0.456568    0.494158  2.00000000
:BAN00021:  21    0.466528    0.543759  2.00000000
:BAN00022:  22    0.587737    0.853813  0.00000000
:BAN00023:  23    0.793304    0.920506  0.00000000
:BAN00024:  24    0.892540    1.120250  0.00000000
:BAN00025:  25    1.049148    1.330605  0.00000000
:BAN00026:  26    1.200306    1.368716  0.00000000
        Energy to separate low and high energystates:   -0.16311


:NOE  : NUMBER OF ELECTRONS          =  42.000

:FER  : F E R M I - ENERGY(TETRAH.M.)=   0.5437586374
:GMA  : POTENTIAL AND CHARGE CUT-OFF  12.00 Ry**.5




:POS001: ATOM   -1 X,Y,Z = 0.00000 0.00000 0.00000  MULT= 1  ZZ= 29.000  Cu1       

       LMMAX  7
       LM=   0 0  2 0  4 0  4 3  6 0  6 3  6 6

:CHA001: TOTAL VALENCE CHARGE INSIDE SPHERE   1 =  15.1873    (RMT=  2.0000 )
:PCS001: PARTIAL CHARGES SPHERE =  1 S,P,D,F,PZ,PXY, D-Z2,D-XY,X2Y2,D-XZ,YZ 
:QTL001: 0.3007 6.1672 8.6947 0.0187 2.1163 4.0509 0.0000 1.4445 3.5715 3.6786 0.0000 0.0000
        Q-s-low E-s-low   Q-p-low E-p-low   Q-d-low E-d-low   Q-f-low E-f-low
:EPL001:  0.0209 -0.8524    6.0040 -4.4865    0.0240 -0.8458    0.0032 -0.8577
        Q-s-hi  E-s-hi    Q-p-hi  E-p-hi    Q-d-hi  E-d-hi    Q-f-hi  E-f-hi 
:EPH001:  0.2798  0.2471    0.1633  0.2140    8.6706  0.4208    0.0155  0.1925
:VZZ001: EFG INSIDE SPHERE   1 =    -1.651807      UP TO R =   2.00000




:POS002: ATOM   -2 X,Y,Z = 0.50000 0.50000 0.50000  MULT= 1  ZZ= 31.000  Ga1       

       LMMAX  7
       LM=   0 0  2 0  4 0  4 3  6 0  6 3  6 6

:CHA002: TOTAL VALENCE CHARGE INSIDE SPHERE   2 =  10.8715    (RMT=  2.0000 )
:PCS002: PARTIAL CHARGES SPHERE =  2 S,P,D,F,PZ,PXY, D-Z2,D-XY,X2Y2,D-XZ,YZ 
:QTL002: 0.4708 0.4408 9.9162 0.0349 0.1334 0.3074 0.0000 1.9642 3.9686 3.9835 0.0000 0.0000
        Q-s-low E-s-low   Q-p-low E-p-low   Q-d-low E-d-low   Q-f-low E-f-low
:EPL002:  0.0631 -0.9478    0.0590 -0.8823    9.6437 -0.6142    0.0052 -0.8757
        Q-s-hi  E-s-hi    Q-p-hi  E-p-hi    Q-d-hi  E-d-hi    Q-f-hi  E-f-hi 
:EPH002:  0.4077 -0.0212    0.3818  0.1388    0.2726  0.1846    0.0297  0.1989
:VZZ002: EFG INSIDE SPHERE   2 =     3.806694      UP TO R =   2.00000




:POS003: ATOM   -3 X,Y,Z = 0.10802 0.10802 0.10802  MULT= 2  ZZ=  8.000  O 1       

       LMMAX 12
       LM=   0 0  1 0  2 0  3 0  3 3  4 0  4 3  5 0  5 3  6 0  6 3  6 6

:CHA003: TOTAL VALENCE CHARGE INSIDE SPHERE   3 =   4.4216    (RMT=  1.4000 )
:PCS003: PARTIAL CHARGES SPHERE =  3 S,P,D,F,PZ,PXY, D-Z2,D-XY,X2Y2,D-XZ,YZ 
:QTL003: 1.3796 3.0319 0.0088 0.0011 1.0005 2.0314 0.0000 0.0015 0.0019 0.0053 0.0000 0.0000
        Q-s-low E-s-low   Q-p-low E-p-low   Q-d-low E-d-low   Q-f-low E-f-low
:EPL003:  1.3071 -0.8933    0.0361 -0.6585    0.0017 -0.7614    0.0004 -0.8884
        Q-s-hi  E-s-hi    Q-p-hi  E-p-hi    Q-d-hi  E-d-hi    Q-f-hi  E-f-hi 
:EPH003:  0.0725  0.0598    2.9958  0.1774    0.0071  0.2984    0.0007  0.3414
:VZZ003: EFG INSIDE SPHERE   3 =     1.203340      UP TO R =   1.40000

:CHA  : TOTAL VALENCE CHARGE INSIDE UNIT CELL =      42.000000

:SUM  : SUM OF EIGENVALUES =         -30.760485269


        1.ATOM      Cu1                   5 CORE STATES
:1S 001: 1S                -649.468047997 Ry
:2S 001: 2S                 -77.186408110 Ry
:2PP001: 2P*                -67.499125548 Ry
:2P 001: 2P                 -65.993358141 Ry
:3S 001: 3S                  -7.626956303 Ry

        2.ATOM      Ga1                   7 CORE STATES
:1S 002: 1S                -750.889118475 Ry
:2S 002: 2S                 -91.945957894 Ry
:2PP002: 2P*                -81.300672813 Ry
:2P 002: 2P                 -79.267962403 Ry
:3S 002: 3S                 -10.083004204 Ry
:3PP002: 3P*                 -6.643013264 Ry
:3P 002: 3P                  -6.376585718 Ry

        3.ATOM      O 1                   1 CORE STATES
       CORE-FORCE in mRy/a.u. = |F|      Fx             Fy             Fz
:FCO003:   3.ATOM     51.433413432      0.000000000      0.000000000     51.433413432

:1S 003: 1S                 -36.541571184 Ry
:CINT001 Core Integral Atom   1   11.998423
:CINT002 Core Integral Atom   2   17.993749
:CINT003 Core Integral Atom   3    1.999999

       DENSITY AT NUCLEUS
        JATOM        VALENCE       SEMI-CORE          CORE           TOTAL
:RTO001:   1        8.695574        0.000000    22628.138518    22636.834092
:RTO002:   2       13.963602        0.000000    27810.493678    27824.457280
:RTO003:   3       14.725429        0.000000      303.793829      318.519258
     
       CHARGES OF NEW CHARGE DENSITY
:NTO   : INTERSTITIAL CHARGE =     7.098017
:NTO001: CHARGE SPHERE  1    =    27.185745
:NTO002: CHARGE SPHERE  2    =    28.865248
:NTO003: CHARGE SPHERE  3    =     6.421567

:NEC01: NUCLEAR AND ELECTRONIC CHARGE     76.00000    75.99214
     
       CHARGES OF OLD CHARGE DENSITY
:OTO   : INTERSTITIAL CHARGE =     6.636796
:OTO001: CHARGE SPHERE  1    =    27.387484
:OTO002: CHARGE SPHERE  2    =    28.827926
:OTO003: CHARGE SPHERE  3    =     6.573897

:NEC02: NUCLEAR AND ELECTRONIC CHARGE     76.00000    76.00000
     
       CONVERGENCE TEST
:DTO001: DIFFERENCE IN SPHERE  1 =  0.8389065
:DTO002: DIFFERENCE IN SPHERE  2 =  0.2039649
:DTO003: DIFFERENCE IN SPHERE  3 =  0.3926705

:DIS  :  CHARGE DISTANCE       ( 0.8389065 for atom    1 spin 1)      0.4570531
:BIG check (qbig,qrms,qtot)    0.280D+00   0.363D+00   0.457D+00
 
******************************************************
* MULTISECANT MIXING VER6 RELEASE 6.0 OPTIONS        *
* Standard Mode with controls                        *
* Regularization       1.000E-06                     *
* Trust Region Control Active                        *
* Max Number of Memory Steps    8                    *
******************************************************
 
:PLANE:  INTERSTITIAL TOTAL      1.76641 DISTAN  1.110E+01 % 
:CHARG:  CLM CHARGE   /ATOM     75.96270 DISTAN  8.481E-01 % 
:REDuction and DMIX in Broyd:    0.8831    0.1766
 
 Step History DMIX, Red, Pred, Trust, FRMS, FABS
  2  3.5000E-02  1.0000E+00  1.0000E+00  1.0000E+00
  3  8.7500E-02  8.0779E-01  1.0000E+00  1.0000E+00
  4  9.6919E-02  1.0000E+00  7.1246E-01  2.5925E+00
  
:NORMS:  Nuclear, Spectral, Froebius, Shanno-Pua   0.2335E+01  0.2339E+01  0.2339E+01  0.3545E+00
:INFO :  Number of Memory Steps    3 Skipping    0
:INFO :  SLambda=    2.3390754  Max    2.3390754

Eigenvalues, unscaled except for SY+YY
   #     SY Real        SY Imag          SS             YY         SY+YY Real      SY+YY Imag
   1   1.063324E+00   0.000000E+00   5.482292E-01   2.999512E+00   5.486695E+00   0.000000E+00
   2  -2.016058E-16   0.000000E+00   1.384309E-16   1.022640E-06   1.116716E-06   0.000000E+00
   3   2.680738E-04   0.000000E+00   1.277482E-04   4.872095E-04   1.126087E-03   0.000000E+00
 
:INFO :  Singular value   5.487E+00 Weight  1.0000E+00 Projections  -2.043E+01 -2.214E-01
:INFO :  Singular value   1.126E-03 Weight  1.0000E+00 Projections   1.067E+02 -8.300E+01
:INFO :  Singular value   1.117E-06 Weight  1.2173E-01 Projections  -8.542E+01  1.105E+02
 
:DIRM :  MEMORY 3/8 RESCALE   6.28 RED 0.709 PRED 0.712 NEXT 0.505
:INFO :  Blimit    2.050E+00  1.002E+00  7.707E-01  3.089E+00
:DIRP :  |MSR1|= 6.608E-01 |PRATT|= 1.231E+00 ANGLE=   9.3 DEGREES
:DIRQ :  |MSR1|= 7.619E-01 |PRATT|= 1.933E+00 ANGLE=  33.1 DEGREES
:DIR  :  |MSR1|= 1.009E+00 |PRATT|= 2.291E+00 ANGLE=  28.2 DEGREES
:MIX  :   MSE1   REGULARIZATION: 3.00E-06  GREED: 0.116  Newton 1.00  0.44                
     
       CHARGES OF MIXED CHARGE DENSITY
:CTO   : INTERSTITIAL CHARGE =     6.818141
:CTO001: CHARGE SPHERE  1    =    27.376112
:CTO002: CHARGE SPHERE  2    =    28.818788
:CTO003: CHARGE SPHERE  3    =     6.493479

:NEC03: NUCLEAR AND ELECTRONIC CHARGE     76.00000    76.00000

PW CHANGE     H    K    L       Current     Change     Residue
:PTO001:      0    0    0  6.42811203E-02 -2.548E-04 -1.961E-04
:PTO002:     -1   -1   -1 -2.44233177E-02  6.784E-04  2.087E-03
:PTO003:     -2   -2   -2 -4.65234860E-03 -1.872E-03 -2.774E-03
:PTO004:     -1    0    0  1.01575703E-01  3.818E-03  4.165E-03
:PTO005:     -1   -1    0  7.07581819E-02 -5.215E-03 -1.056E-02
:PTO006:     -2   -1   -1 -5.64110703E-02 -6.857E-03 -1.205E-02
:PTO007:     -2   -2   -1 -8.05791575E-02  3.724E-04  1.152E-03
:PTO008:     -3   -3   -3  2.76578588E-02  1.008E-03  1.400E-03
:PTO009:     -3   -2   -2  8.43930221E-03  1.820E-03  2.804E-03
:PTO010:     -3   -3   -2  4.85401700E-02 -3.294E-03 -7.404E-03
:PTO011:     -1    0    1  4.47814348E-02 -4.766E-03 -9.397E-03
:PTO012:     -2   -1    0 -3.07688338E-02  9.445E-04  2.125E-03

:ENE  : ********** TOTAL ENERGY IN Ry =        -7499.46667405

       TOTAL FORCE IN mRy/a.u. = |F|     Fx             Fy             Fz     with/without FOR in case.in2
:FOR001:   1.ATOM          0.000          0.000          0.000          0.000 partial forces
:FOR002:   2.ATOM          0.000          0.000          0.000          0.000 partial forces
:FOR003:   3.ATOM        171.876          0.000          0.000       -171.876 partial forces
       TOTAL FORCE WITH RESPECT TO GLOBAL CARTESIAN COORDINATES:
:FCA001:   1.ATOM                         0.000          0.000          0.000 partial forces
:FCA002:   2.ATOM                         0.000          0.000          0.000 partial forces
:FCA003:   3.ATOM                         0.000          0.000       -171.876 partial forces
       TOTAL FORCE WITH RESPECT TO THE GLOBAL COORDINATE SYSTEM:
:FGL001:   1.ATOM                 0.000000000     0.000000000     0.000000000 partial forces
:FGL002:   2.ATOM                 0.000000000     0.000000000     0.000000000 partial forces
:FGL003:   3.ATOM              -171.875537931  -171.875537931  -171.875537931 partial forces


            ---------
:ITE005:  5. ITERATION
            ---------

:NATO :    3 INDEPENDENT AND    4 TOTAL ATOMS IN UNITCELL
       SUBSTANCE: CuGaO2 KoehlerB86                                           

       LATTICE                      = R   
:POT  : POTENTIAL OPTION EX_PBE EC_PBE VX_PBE VC_PBE
:LAT  : LATTICE CONSTANTS=  5.63135  5.63135 32.31415
:VOL  : UNIT CELL VOLUME =     295.82013
       MODE OF CALCULATION IS       = RELA
       NON-SPINPOLARIZED CALCULATION
:IFFT  : FFT-parameters:   90   90   90 Factor: 2.00
       ATOMNUMBER=  1 Cu1        VCOUL-ZERO =  0.34111E+00
:EFG001:                        EFG         =    -5.12946   *10**21  V / m**2
                               V20  TOT/SRF=    -4.44224     0.21308
                               V22  TOT/SRF=     0.00000     0.00000
                               V22M TOT/SRF=     0.00000     0.00000
                               V21  TOT/SRF=     0.00000     0.00000
                               V21M TOT/SRF=     0.00000     0.00000

              2.56473    0.00000    0.00000        2.56473    0.00000    0.00000
              0.00000    2.56473    0.00000        0.00000    2.56473    0.00000
              0.00000    0.00000   -5.12946        0.00000    0.00000   -5.12946

         MAIN DIRECTIONS OF THE EFG   1.0000  0.0000  0.0000
                                      0.0000  1.0000  0.0000
                                      0.0000  0.0000  1.0000
:ANG001:  ANGLE WITH OLD X-AXIS =         0.0

:ETA001:                         ASYMM. ETA =     0.00000


       ATOMNUMBER=  2 Ga1        VCOUL-ZERO =  0.10237E+00
:EFG002:                        EFG         =     3.82142   *10**21  V / m**2
                               V20  TOT/SRF=     3.30944    -0.05269
                               V22  TOT/SRF=     0.00000     0.00000
                               V22M TOT/SRF=     0.00000     0.00000
                               V21  TOT/SRF=     0.00000     0.00000
                               V21M TOT/SRF=     0.00000     0.00000

             -1.91071    0.00000    0.00000       -1.91071    0.00000    0.00000
              0.00000   -1.91071    0.00000        0.00000   -1.91071    0.00000
              0.00000    0.00000    3.82142        0.00000    0.00000    3.82142

         MAIN DIRECTIONS OF THE EFG   1.0000  0.0000  0.0000
                                      0.0000  1.0000  0.0000
                                      0.0000  0.0000  1.0000
:ANG002:  ANGLE WITH OLD X-AXIS =         0.0

:ETA002:                         ASYMM. ETA =     0.00000


       ATOMNUMBER=  3 O 1        VCOUL-ZERO =  0.14331E+00
:EFG003:                        EFG         =     1.56781   *10**21  V / m**2
                               V20  TOT/SRF=     1.35776     0.32022
                               V22  TOT/SRF=     0.00000     0.00000
                               V22M TOT/SRF=     0.00000     0.00000
                               V21  TOT/SRF=     0.00000     0.00000
                               V21M TOT/SRF=     0.00000     0.00000

             -0.78391    0.00000    0.00000       -0.78391    0.00000    0.00000
              0.00000   -0.78391    0.00000        0.00000   -0.78391    0.00000
              0.00000    0.00000    1.56781        0.00000    0.00000    1.56781

         MAIN DIRECTIONS OF THE EFG   1.0000  0.0000  0.0000
                                      0.0000  1.0000  0.0000
                                      0.0000  0.0000  1.0000
:ANG003:  ANGLE WITH OLD X-AXIS =         0.0

:ETA003:                         ASYMM. ETA =     0.00000


     HELLMANN-FEYNMAN-FORCE IN mRy/a.u. = |F|  Fx       Fy             Fz
:FHF001:   1.ATOM      0.000000000      0.000000000      0.000000000      0.000000000

     HELLMANN-FEYNMAN-FORCE IN mRy/a.u. = |F|  Fx       Fy             Fz
:FHF002:   2.ATOM      0.000000000      0.000000000      0.000000000      0.000000000

     HELLMANN-FEYNMAN-FORCE IN mRy/a.u. = |F|  Fx       Fy             Fz
:FHF003:   3.ATOM     14.896842960      0.000000000      0.000000000    -14.896842960

:FIT001: LUSE= 13 SIGMA OF V-XC FIT FOR ATOM  1  0.7850867E-02
:FIT001: LUSE= 13 SIGMA OF V-XC FIT FOR ATOM  1  0.7850867E-02
:FIT002: LUSE= 13 SIGMA OF V-XC FIT FOR ATOM  2  0.2192556E-01
:FIT002: LUSE= 13 SIGMA OF V-XC FIT FOR ATOM  2  0.2192556E-01
:FIT003: LUSE= 13 SIGMA OF V-XC FIT FOR ATOM  3  0.1639930E-03
:FIT003: LUSE= 13 SIGMA OF V-XC FIT FOR ATOM  3  0.1639930E-03
:DEN  : DENSITY INTEGRAL  =         -3227.45097001   (Ry)
       ELS_POTENTIAL_AT Z=0 and Z=0.5:   0.00000   0.00000
       ELS_POTENTIAL_AT Y=0 and Y=0.5:   0.00000   0.00000
:VZERO:v0,v0c,v0x  -0.79019   0.00000  -0.79019 v5,v5c,v5x  -0.79019   0.00000  -0.79019
:VZERY:v0,v0c,v0x  -0.79019   0.00000  -0.79019 v5,v5c,v5x  -0.79019   0.00000  -0.79019
:VZERX:v0,v0c,v0x  -2.14040  -0.98878  -1.15162 v5,v5c,v5x  -0.30864   0.08769  -0.39633

          ATOMIC SPHERE DEPENDENT PARAMETERS FOR ATOM  Cu1       
:e__0001: OVERALL ENERGY PARAMETER IS    0.3438
          OVERALL BASIS SET ON ATOM IS LAPW
:E1_0001: E( 1)=    0.3438
             APW+lo
:E1_0001: E( 1)=   -4.6486   E(BOTTOM)=   -4.715   E(TOP)=   -4.582  1  2   167
             LOCAL ORBITAL
:E2_0001: E( 2)=    0.2800   E(BOTTOM)=   -0.045   E(TOP)=    0.605  0  1   137
             APW+lo
:E0_0001: E( 0)=    0.3438
             APW+lo

          ATOMIC SPHERE DEPENDENT PARAMETERS FOR ATOM  Ga1       
:e__0002: OVERALL ENERGY PARAMETER IS    0.3438
          OVERALL BASIS SET ON ATOM IS LAPW
:E2_0002: E( 2)=   -0.5847   E(BOTTOM)=   -0.794   E(TOP)=   -0.375  0  1   149
             APW+lo
:E2_0002: E( 2)=    0.7438
             LOCAL ORBITAL
:E0_0002: E( 0)=    0.3438
             APW+lo
:E1_0002: E( 1)=    0.3438
             APW+lo

          ATOMIC SPHERE DEPENDENT PARAMETERS FOR ATOM  O 1       
:e__0003: OVERALL ENERGY PARAMETER IS    0.3438
          OVERALL BASIS SET ON ATOM IS LAPW
:E0_0003: E( 0)=   -1.5500   E(BOTTOM)=   -2.599   E(TOP)= -200.000  1 -1   228
             APW+lo
:E0_0003: E( 0)=    0.7438
             LOCAL ORBITAL
:E1_0003: E( 1)=    0.3438
             APW+lo

       K=   0.00000   0.00000   0.00000            1
:RKM  : MATRIX SIZE   653LOs:  36  RKM= 6.99  WEIGHT= 1.00  PGR:    
       EIGENVALUES ARE:
:EIG00001:      -4.6434992   -4.6294575   -4.6294575   -1.0503727   -0.9069580
:EIG00006:      -0.5661798   -0.5661798   -0.5581809   -0.5403609   -0.5403609
:EIG00011:      -0.1092221    0.2021904    0.2033897    0.2344360    0.2344360
:EIG00016:       0.2629875    0.2629875    0.3183895    0.3183895    0.3934818
:EIG00021:       0.3934818    0.5331404    0.8407946    0.8852274    1.3417572
:EIG00026:       1.3429901    1.3429901    1.6572453    1.7206703    1.7206703
:EIG00031:       1.7643776    1.8063478    1.8063478    1.9008626
       ********************************************************

:KPT   :      NUMBER OF K-POINTS:    32
       Insulator, EF-inconsistency corrected
:GAP  :    0.0883 Ry =     1.201 eV   (provided you have a proper k-mesh)
         Bandranges (emin - emax) and occupancy:
:BAN00011:  11   -0.123767   -0.022827  2.00000000
:BAN00012:  12   -0.069700    0.202190  2.00000000
:BAN00013:  13    0.020738    0.208358  2.00000000
:BAN00014:  14    0.092123    0.234436  2.00000000
:BAN00015:  15    0.147135    0.234436  2.00000000
:BAN00016:  16    0.211730    0.284184  2.00000000
:BAN00017:  17    0.262988    0.320437  2.00000000
:BAN00018:  18    0.308199    0.350548  2.00000000
:BAN00019:  19    0.318331    0.361833  2.00000000
:BAN00020:  20    0.355839    0.403524  2.00000000
:BAN00021:  21    0.364775    0.444804  2.00000000
:BAN00022:  22    0.533140    0.843247  0.00000000
:BAN00023:  23    0.725503    0.910510  0.00000000
:BAN00024:  24    0.885227    1.119708  0.00000000
:BAN00025:  25    1.022406    1.341757  0.00000000
:BAN00026:  26    1.191056    1.370234  0.00000000
        Energy to separate low and high energystates:   -0.17377


:NOE  : NUMBER OF ELECTRONS          =  42.000

:FER  : F E R M I - ENERGY(TETRAH.M.)=   0.4448040842
:GMA  : POTENTIAL AND CHARGE CUT-OFF  12.00 Ry**.5




:POS001: ATOM   -1 X,Y,Z = 0.00000 0.00000 0.00000  MULT= 1  ZZ= 29.000  Cu1       

       LMMAX  7
       LM=   0 0  2 0  4 0  4 3  6 0  6 3  6 6

:CHA001: TOTAL VALENCE CHARGE INSIDE SPHERE   1 =  15.4802    (RMT=  2.0000 )
:PCS001: PARTIAL CHARGES SPHERE =  1 S,P,D,F,PZ,PXY, D-Z2,D-XY,X2Y2,D-XZ,YZ 
:QTL001: 0.2752 6.1519 9.0282 0.0187 2.1152 4.0367 0.0000 1.6239 3.6635 3.7409 0.0000 0.0000
        Q-s-low E-s-low   Q-p-low E-p-low   Q-d-low E-d-low   Q-f-low E-f-low
:EPL001:  0.0216 -0.8679    6.0061 -4.6203    0.0271 -0.8538    0.0034 -0.8815
        Q-s-hi  E-s-hi    Q-p-hi  E-p-hi    Q-d-hi  E-d-hi    Q-f-hi  E-f-hi 
:EPH001:  0.2536  0.2030    0.1458  0.1618    9.0011  0.3187    0.0153  0.1549
:VZZ001: EFG INSIDE SPHERE   1 =    -7.657186      UP TO R =   2.00000




:POS002: ATOM   -2 X,Y,Z = 0.50000 0.50000 0.50000  MULT= 1  ZZ= 31.000  Ga1       

       LMMAX  7
       LM=   0 0  2 0  4 0  4 3  6 0  6 3  6 6

:CHA002: TOTAL VALENCE CHARGE INSIDE SPHERE   2 =  10.7826    (RMT=  2.0000 )
:PCS002: PARTIAL CHARGES SPHERE =  2 S,P,D,F,PZ,PXY, D-Z2,D-XY,X2Y2,D-XZ,YZ 
:QTL002: 0.4352 0.4081 9.8963 0.0341 0.1233 0.2848 0.0000 1.9604 3.9603 3.9756 0.0000 0.0000
        Q-s-low E-s-low   Q-p-low E-p-low   Q-d-low E-d-low   Q-f-low E-f-low
:EPL002:  0.0585 -0.9665    0.0557 -0.9050    9.5761 -0.5490    0.0052 -0.9029
        Q-s-hi  E-s-hi    Q-p-hi  E-p-hi    Q-d-hi  E-d-hi    Q-f-hi  E-f-hi 
:EPH002:  0.3767 -0.0443    0.3524  0.1105    0.3203  0.1510    0.0290  0.1692
:VZZ002: EFG INSIDE SPHERE   2 =     3.579706      UP TO R =   2.00000




:POS003: ATOM   -3 X,Y,Z = 0.10802 0.10802 0.10802  MULT= 2  ZZ=  8.000  O 1       

       LMMAX 12
       LM=   0 0  1 0  2 0  3 0  3 3  4 0  4 3  5 0  5 3  6 0  6 3  6 6

:CHA003: TOTAL VALENCE CHARGE INSIDE SPHERE   3 =   4.5082    (RMT=  1.4000 )
:PCS003: PARTIAL CHARGES SPHERE =  3 S,P,D,F,PZ,PXY, D-Z2,D-XY,X2Y2,D-XZ,YZ 
:QTL003: 1.3887 3.1104 0.0079 0.0011 1.0201 2.0903 0.0000 0.0016 0.0018 0.0045 0.0000 0.0000
        Q-s-low E-s-low   Q-p-low E-p-low   Q-d-low E-d-low   Q-f-low E-f-low
:EPL003:  1.3234 -0.9243    0.0475 -0.5815    0.0018 -0.6883    0.0004 -0.8187
        Q-s-hi  E-s-hi    Q-p-hi  E-p-hi    Q-d-hi  E-d-hi    Q-f-hi  E-f-hi 
:EPH003:  0.0653  0.0461    3.0629  0.1498    0.0061  0.2198    0.0007  0.2549
:VZZ003: EFG INSIDE SPHERE   3 =     1.800976      UP TO R =   1.40000

:CHA  : TOTAL VALENCE CHARGE INSIDE UNIT CELL =      42.000000

:SUM  : SUM OF EIGENVALUES =         -32.318451681


        1.ATOM      Cu1                   5 CORE STATES
:1S 001: 1S                -649.790132751 Ry
:2S 001: 2S                 -77.473156846 Ry
:2PP001: 2P*                -67.793159159 Ry
:2P 001: 2P                 -66.286587098 Ry
:3S 001: 3S                  -7.768380429 Ry

        2.ATOM      Ga1                   7 CORE STATES
:1S 002: 1S                -750.742071899 Ry
:2S 002: 2S                 -91.812341903 Ry
:2PP002: 2P*                -81.164218427 Ry
:2P 002: 2P                 -79.131850939 Ry
:3S 002: 3S                 -10.005902123 Ry
:3PP002: 3P*                 -6.567551577 Ry
:3P 002: 3P                  -6.302294748 Ry

        3.ATOM      O 1                   1 CORE STATES
       CORE-FORCE in mRy/a.u. = |F|      Fx             Fy             Fz
:FCO003:   3.ATOM      1.756775436      0.000000000      0.000000000     -1.756775436

:1S 003: 1S                 -36.637787569 Ry
:CINT001 Core Integral Atom   1   11.998531
:CINT002 Core Integral Atom   2   17.993556
:CINT003 Core Integral Atom   3    1.999999

       DENSITY AT NUCLEUS
        JATOM        VALENCE       SEMI-CORE          CORE           TOTAL
:RTO001:   1        7.848998        0.000000    22631.873552    22639.722550
:RTO002:   2       12.744711        0.000000    27808.872824    27821.617535
:RTO003:   3       14.948004        0.000000      303.854516      318.802521
     
       CHARGES OF NEW CHARGE DENSITY
:NTO   : INTERSTITIAL CHARGE =     6.720667
:NTO001: CHARGE SPHERE  1    =    27.478768
:NTO002: CHARGE SPHERE  2    =    28.776139
:NTO003: CHARGE SPHERE  3    =     6.508241

:NEC01: NUCLEAR AND ELECTRONIC CHARGE     76.00000    75.99206
     
       CHARGES OF OLD CHARGE DENSITY
:OTO   : INTERSTITIAL CHARGE =     6.818141
:OTO001: CHARGE SPHERE  1    =    27.376112
:OTO002: CHARGE SPHERE  2    =    28.818788
:OTO003: CHARGE SPHERE  3    =     6.493479

:NEC02: NUCLEAR AND ELECTRONIC CHARGE     76.00000    76.00000
     
       CONVERGENCE TEST
:DTO001: DIFFERENCE IN SPHERE  1 =  0.4218205
:DTO002: DIFFERENCE IN SPHERE  2 =  0.1868249
:DTO003: DIFFERENCE IN SPHERE  3 =  0.2224734

:DIS  :  CHARGE DISTANCE       ( 0.4218205 for atom    1 spin 1)      0.2633980
:BIG check (qbig,qrms,qtot)    0.141D+00   0.197D+00   0.263D+00
 
******************************************************
* MULTISECANT MIXING VER6 RELEASE 6.0 OPTIONS        *
* Standard Mode with controls                        *
* Regularization       1.000E-06                     *
* Trust Region Control Active                        *
* Max Number of Memory Steps    8                    *
******************************************************
 
:PLANE:  INTERSTITIAL TOTAL      1.76240 DISTAN  5.520E+00 % 
:CHARG:  CLM CHARGE   /ATOM     75.93121 DISTAN  4.256E-01 % 
 
 Step History DMIX, Red, Pred, Trust, FRMS, FABS
  2  3.5000E-02  1.0000E+00  1.0000E+00  1.0000E+00
  3  8.7500E-02  8.0779E-01  1.0000E+00  1.0000E+00
  4  9.6919E-02  7.0943E-01  7.1246E-01  2.5925E+00
  5  1.1561E-01  1.0000E+00  5.0491E-01  3.0887E+00
  
:NORMS:  Nuclear, Spectral, Froebius, Shanno-Pua   0.1777E+01  0.1371E+01  0.1551E+01  0.6006E+00
:INFO :  Number of Memory Steps    4 Skipping    0
:INFO :  SLambda=    1.7771363  Max    1.7771363

[...]
:PTO005:     -1   -1    0  6.57208652E-02 -1.718E-09 -2.193E-09
:PTO006:     -2   -1   -1 -6.29129825E-02  6.269E-09  2.255E-09
:PTO007:     -2   -2   -1 -8.13004394E-02  1.213E-08  1.029E-08
:PTO008:     -3   -3   -3  2.83519919E-02  9.150E-10  3.271E-09
:PTO009:     -3   -2   -2  9.18864706E-03  7.390E-09  1.294E-08
:PTO010:     -3   -3   -2  4.51921171E-02  3.409E-09  1.024E-08
:PTO011:     -1    0    1  4.16518279E-02 -5.594E-09 -8.441E-10
:PTO012:     -2   -1    0 -2.98401120E-02  8.660E-09  8.754E-09

:ENE  : ********** TOTAL ENERGY IN Ry =        -7499.42948441

       TOTAL FORCE IN mRy/a.u. = |F|     Fx             Fy             Fz     with/without FOR in case.in2
:FOR001:   1.ATOM          0.000          0.000          0.000          0.000 partial forces
:FOR002:   2.ATOM          0.000          0.000          0.000          0.000 partial forces
:FOR003:   3.ATOM          7.513          0.000          0.000         -7.513 partial forces
       TOTAL FORCE WITH RESPECT TO GLOBAL CARTESIAN COORDINATES:
:FCA001:   1.ATOM                         0.000          0.000          0.000 partial forces
:FCA002:   2.ATOM                         0.000          0.000          0.000 partial forces
:FCA003:   3.ATOM                         0.000          0.000         -7.513 partial forces
       TOTAL FORCE WITH RESPECT TO THE GLOBAL COORDINATE SYSTEM:
:FGL001:   1.ATOM                 0.000000000     0.000000000     0.000000000 partial forces
:FGL002:   2.ATOM                 0.000000000     0.000000000     0.000000000 partial forces
:FGL003:   3.ATOM                -7.512678227    -7.512678227    -7.512678227 partial forces


            ---------
:ITE021: 21. ITERATION
            ---------

:NATO :    3 INDEPENDENT AND    4 TOTAL ATOMS IN UNITCELL
       SUBSTANCE: CuGaO2 KoehlerB86                                           

       LATTICE                      = R   
:POT  : POTENTIAL OPTION EX_PBE EC_PBE VX_PBE VC_PBE
:LAT  : LATTICE CONSTANTS=  5.63135  5.63135 32.31415
:VOL  : UNIT CELL VOLUME =     295.82013
       MODE OF CALCULATION IS       = RELA
       NON-SPINPOLARIZED CALCULATION
:IFFT  : FFT-parameters:   90   90   90 Factor: 2.00
       ATOMNUMBER=  1 Cu1        VCOUL-ZERO =  0.33671E+00
:EFG001:                        EFG         =    -5.75560   *10**21  V / m**2
                               V20  TOT/SRF=    -4.98450     0.18221
                               V22  TOT/SRF=     0.00000     0.00000
                               V22M TOT/SRF=     0.00000     0.00000
                               V21  TOT/SRF=     0.00000     0.00000
                               V21M TOT/SRF=     0.00000     0.00000

              2.87780    0.00000    0.00000        2.87780    0.00000    0.00000
              0.00000    2.87780    0.00000        0.00000    2.87780    0.00000
              0.00000    0.00000   -5.75560        0.00000    0.00000   -5.75560

         MAIN DIRECTIONS OF THE EFG   1.0000  0.0000  0.0000
                                      0.0000  1.0000  0.0000
                                      0.0000  0.0000  1.0000
:ANG001:  ANGLE WITH OLD X-AXIS =         0.0

:ETA001:                         ASYMM. ETA =     0.00000


       ATOMNUMBER=  2 Ga1        VCOUL-ZERO =  0.97972E-01
:EFG002:                        EFG         =     3.51924   *10**21  V / m**2
                               V20  TOT/SRF=     3.04775    -0.04559
                               V22  TOT/SRF=     0.00000     0.00000
                               V22M TOT/SRF=     0.00000     0.00000
                               V21  TOT/SRF=     0.00000     0.00000
                               V21M TOT/SRF=     0.00000     0.00000

             -1.75962    0.00000    0.00000       -1.75962    0.00000    0.00000
              0.00000   -1.75962    0.00000        0.00000   -1.75962    0.00000
              0.00000    0.00000    3.51924        0.00000    0.00000    3.51924

         MAIN DIRECTIONS OF THE EFG   1.0000  0.0000  0.0000
                                      0.0000  1.0000  0.0000
                                      0.0000  0.0000  1.0000
:ANG002:  ANGLE WITH OLD X-AXIS =         0.0

:ETA002:                         ASYMM. ETA =     0.00000


       ATOMNUMBER=  3 O 1        VCOUL-ZERO =  0.16616E+00
:EFG003:                        EFG         =     2.00288   *10**21  V / m**2
                               V20  TOT/SRF=     1.73454     0.31155
                               V22  TOT/SRF=     0.00000     0.00000
                               V22M TOT/SRF=     0.00000     0.00000
                               V21  TOT/SRF=     0.00000     0.00000
                               V21M TOT/SRF=     0.00000     0.00000

             -1.00144    0.00000    0.00000       -1.00144    0.00000    0.00000
              0.00000   -1.00144    0.00000        0.00000   -1.00144    0.00000
              0.00000    0.00000    2.00288        0.00000    0.00000    2.00288

         MAIN DIRECTIONS OF THE EFG   1.0000  0.0000  0.0000
                                      0.0000  1.0000  0.0000
                                      0.0000  0.0000  1.0000
:ANG003:  ANGLE WITH OLD X-AXIS =         0.0

:ETA003:                         ASYMM. ETA =     0.00000


     HELLMANN-FEYNMAN-FORCE IN mRy/a.u. = |F|  Fx       Fy             Fz
:FHF001:   1.ATOM      0.000000000      0.000000000      0.000000000      0.000000000

     HELLMANN-FEYNMAN-FORCE IN mRy/a.u. = |F|  Fx       Fy             Fz
:FHF002:   2.ATOM      0.000000000      0.000000000      0.000000000      0.000000000

     HELLMANN-FEYNMAN-FORCE IN mRy/a.u. = |F|  Fx       Fy             Fz
:FHF003:   3.ATOM     11.472038567      0.000000000      0.000000000    -11.472038567

:FIT001: LUSE= 13 SIGMA OF V-XC FIT FOR ATOM  1  0.7428110E-02
:FIT001: LUSE= 13 SIGMA OF V-XC FIT FOR ATOM  1  0.7428110E-02
:FIT002: LUSE= 13 SIGMA OF V-XC FIT FOR ATOM  2  0.1629406E-01
:FIT002: LUSE= 13 SIGMA OF V-XC FIT FOR ATOM  2  0.1629406E-01
:FIT003: LUSE= 13 SIGMA OF V-XC FIT FOR ATOM  3  0.2267527E-03
:FIT003: LUSE= 13 SIGMA OF V-XC FIT FOR ATOM  3  0.2267527E-03
:DEN  : DENSITY INTEGRAL  =         -3227.00554613   (Ry)
       ELS_POTENTIAL_AT Z=0 and Z=0.5:   0.00000   0.00000
       ELS_POTENTIAL_AT Y=0 and Y=0.5:   0.00000   0.00000
:VZERO:v0,v0c,v0x  -0.78100   0.00000  -0.78100 v5,v5c,v5x  -0.78100   0.00000  -0.78100
:VZERY:v0,v0c,v0x  -0.78100   0.00000  -0.78100 v5,v5c,v5x  -0.78100   0.00000  -0.78100
:VZERX:v0,v0c,v0x  -2.09255  -0.96314  -1.12941 v5,v5c,v5x  -0.29309   0.07269  -0.36578

          ATOMIC SPHERE DEPENDENT PARAMETERS FOR ATOM  Cu1       
:e__0001: OVERALL ENERGY PARAMETER IS    0.2708
          OVERALL BASIS SET ON ATOM IS LAPW
:E1_0001: E( 1)=    0.2708
             APW+lo
:E1_0001: E( 1)=   -4.6059   E(BOTTOM)=   -4.673   E(TOP)=   -4.538  1  2   168
             LOCAL ORBITAL
:E2_0001: E( 2)=    0.3152   E(BOTTOM)=   -0.018   E(TOP)=    0.648  0  1   134
             APW+lo
:E0_0001: E( 0)=    0.2708
             APW+lo

          ATOMIC SPHERE DEPENDENT PARAMETERS FOR ATOM  Ga1       
:e__0002: OVERALL ENERGY PARAMETER IS    0.2708
          OVERALL BASIS SET ON ATOM IS LAPW
:E2_0002: E( 2)=   -0.6246   E(BOTTOM)=   -0.831   E(TOP)=   -0.418  0  1   150
             APW+lo
:E2_0002: E( 2)=    0.6708
             LOCAL ORBITAL
:E0_0002: E( 0)=    0.2708
             APW+lo
:E1_0002: E( 1)=    0.2708
             APW+lo

          ATOMIC SPHERE DEPENDENT PARAMETERS FOR ATOM  O 1       
:e__0003: OVERALL ENERGY PARAMETER IS    0.2708
          OVERALL BASIS SET ON ATOM IS LAPW
:E0_0003: E( 0)=   -1.5500   E(BOTTOM)=   -2.612   E(TOP)= -200.000  1 -1   234
             APW+lo
:E0_0003: E( 0)=    0.6708
             LOCAL ORBITAL
:E1_0003: E( 1)=    0.2708
             APW+lo

       K=   0.00000   0.00000   0.00000            1
:RKM  : MATRIX SIZE   653LOs:  36  RKM= 6.99  WEIGHT= 1.00  PGR:    
       EIGENVALUES ARE:
:EIG00001:      -4.6027053   -4.5852793   -4.5852793   -1.0569066   -0.9138668
:EIG00006:      -0.6037385   -0.6037385   -0.5966261   -0.5804725   -0.5804725
:EIG00011:      -0.1143126    0.1965675    0.2129605    0.2358625    0.2358625
:EIG00016:       0.2537647    0.2537647    0.3525549    0.3525549    0.4159332
:EIG00021:       0.4159332    0.5423534    0.8358189    0.8812287    1.3336856
:EIG00026:       1.3336856    1.3385586    1.6534924    1.7175234    1.7175234
:EIG00031:       1.7610464    1.8080358    1.8080358    1.9009100
       ********************************************************

:KPT   :      NUMBER OF K-POINTS:    32
       Insulator, EF-inconsistency corrected
:GAP  :    0.0715 Ry =     0.973 eV   (provided you have a proper k-mesh)
         Bandranges (emin - emax) and occupancy:
:BAN00011:  11   -0.131484   -0.030869  2.00000000
:BAN00012:  12   -0.072710    0.196567  2.00000000
:BAN00013:  13    0.014114    0.222564  2.00000000
:BAN00014:  14    0.087310    0.235862  2.00000000
:BAN00015:  15    0.140079    0.235862  2.00000000
:BAN00016:  16    0.211379    0.281335  2.00000000
:BAN00017:  17    0.253765    0.352317  2.00000000
:BAN00018:  18    0.340152    0.381710  2.00000000
:BAN00019:  19    0.352488    0.398546  2.00000000
:BAN00020:  20    0.384958    0.423372  2.00000000
:BAN00021:  21    0.393314    0.470812  2.00000000
:BAN00022:  22    0.542353    0.842459  0.00000000
:BAN00023:  23    0.735155    0.898517  0.00000000
:BAN00024:  24    0.876427    1.115261  0.00000000
:BAN00025:  25    1.022014    1.333686  0.00000000
:BAN00026:  26    1.185549    1.367159  0.00000000
        Energy to separate low and high energystates:   -0.18148


:NOE  : NUMBER OF ELECTRONS          =  42.000

:FER  : F E R M I - ENERGY(TETRAH.M.)=   0.4708124957
:GMA  : POTENTIAL AND CHARGE CUT-OFF  12.00 Ry**.5




:POS001: ATOM   -1 X,Y,Z = 0.00000 0.00000 0.00000  MULT= 1  ZZ= 29.000  Cu1       

       LMMAX  7
       LM=   0 0  2 0  4 0  4 3  6 0  6 3  6 6

:CHA001: TOTAL VALENCE CHARGE INSIDE SPHERE   1 =  15.3767    (RMT=  2.0000 )
:PCS001: PARTIAL CHARGES SPHERE =  1 S,P,D,F,PZ,PXY, D-Z2,D-XY,X2Y2,D-XZ,YZ 
:QTL001: 0.2783 6.1528 8.9207 0.0187 2.1133 4.0395 0.0000 1.5678 3.6312 3.7217 0.0000 0.0000
        Q-s-low E-s-low   Q-p-low E-p-low   Q-d-low E-d-low   Q-f-low E-f-low
:EPL001:  0.0209 -0.8822    6.0052 -4.5777    0.0256 -0.8718    0.0033 -0.8928
        Q-s-hi  E-s-hi    Q-p-hi  E-p-hi    Q-d-hi  E-d-hi    Q-f-hi  E-f-hi 
:EPH001:  0.2574  0.2079    0.1476  0.1635    8.8951  0.3513    0.0154  0.1502
:VZZ001: EFG INSIDE SPHERE   1 =    -6.066400      UP TO R =   2.00000




:POS002: ATOM   -2 X,Y,Z = 0.50000 0.50000 0.50000  MULT= 1  ZZ= 31.000  Ga1       

       LMMAX  7
       LM=   0 0  2 0  4 0  4 3  6 0  6 3  6 6

:CHA002: TOTAL VALENCE CHARGE INSIDE SPHERE   2 =  10.7975    (RMT=  2.0000 )
:PCS002: PARTIAL CHARGES SPHERE =  2 S,P,D,F,PZ,PXY, D-Z2,D-XY,X2Y2,D-XZ,YZ 
:QTL002: 0.4403 0.4099 9.9044 0.0341 0.1238 0.2861 0.0000 1.9622 3.9637 3.9786 0.0000 0.0000
        Q-s-low E-s-low   Q-p-low E-p-low   Q-d-low E-d-low   Q-f-low E-f-low
:EPL002:  0.0584 -0.9773    0.0555 -0.9154    9.6089 -0.5880    0.0051 -0.9118
        Q-s-hi  E-s-hi    Q-p-hi  E-p-hi    Q-d-hi  E-d-hi    Q-f-hi  E-f-hi 
:EPH002:  0.3819 -0.0501    0.3545  0.1037    0.2955  0.1471    0.0289  0.1620
:VZZ002: EFG INSIDE SPHERE   2 =     3.627499      UP TO R =   2.00000




:POS003: ATOM   -3 X,Y,Z = 0.10802 0.10802 0.10802  MULT= 2  ZZ=  8.000  O 1       

       LMMAX 12
       LM=   0 0  1 0  2 0  3 0  3 3  4 0  4 3  5 0  5 3  6 0  6 3  6 6

:CHA003: TOTAL VALENCE CHARGE INSIDE SPHERE   3 =   4.5303    (RMT=  1.4000 )
:PCS003: PARTIAL CHARGES SPHERE =  3 S,P,D,F,PZ,PXY, D-Z2,D-XY,X2Y2,D-XZ,YZ 
:QTL003: 1.3907 3.1302 0.0080 0.0011 1.0290 2.1012 0.0000 0.0016 0.0018 0.0046 0.0000 0.0000
        Q-s-low E-s-low   Q-p-low E-p-low   Q-d-low E-d-low   Q-f-low E-f-low
:EPL003:  1.3262 -0.9312    0.0424 -0.6222    0.0017 -0.7317    0.0004 -0.8613
        Q-s-hi  E-s-hi    Q-p-hi  E-p-hi    Q-d-hi  E-d-hi    Q-f-hi  E-f-hi 
:EPH003:  0.0646  0.0369    3.0877  0.1416    0.0063  0.2392    0.0007  0.2789
:VZZ003: EFG INSIDE SPHERE   3 =     1.610996      UP TO R =   1.40000

:CHA  : TOTAL VALENCE CHARGE INSIDE UNIT CELL =      42.000000

:SUM  : SUM OF EIGENVALUES =         -32.257962095


        1.ATOM      Cu1                   5 CORE STATES
:1S 001: 1S                -649.686796093 Ry
:2S 001: 2S                 -77.378492077 Ry
:2PP001: 2P*                -67.696084571 Ry
:2P 001: 2P                 -66.189766625 Ry
:3S 001: 3S                  -7.723085888 Ry

        2.ATOM      Ga1                   7 CORE STATES
:1S 002: 1S                -750.834024366 Ry
:2S 002: 2S                 -91.889153623 Ry
:2PP002: 2P*                -81.243472366 Ry
:2P 002: 2P                 -79.210805684 Ry
:3S 002: 3S                 -10.051297170 Ry
:3PP002: 3P*                 -6.612191857 Ry
:3P 002: 3P                  -6.346372276 Ry

        3.ATOM      O 1                   1 CORE STATES
       CORE-FORCE in mRy/a.u. = |F|      Fx             Fy             Fz
:FCO003:   3.ATOM      3.960785014      0.000000000      0.000000000      3.960785014

:1S 003: 1S                 -36.737250455 Ry
:CINT001 Core Integral Atom   1   11.998495
:CINT002 Core Integral Atom   2   17.993652
:CINT003 Core Integral Atom   3    1.999999

       DENSITY AT NUCLEUS
        JATOM        VALENCE       SEMI-CORE          CORE           TOTAL
:RTO001:   1        7.965471        0.000000    22630.695541    22638.661012
:RTO002:   2       12.938088        0.000000    27809.865635    27822.803723
:RTO003:   3       14.990060        0.000000      304.059442      319.049502
     
       CHARGES OF NEW CHARGE DENSITY
:NTO   : INTERSTITIAL CHARGE =     6.765167
:NTO001: CHARGE SPHERE  1    =    27.375238
:NTO002: CHARGE SPHERE  2    =    28.791179
:NTO003: CHARGE SPHERE  3    =     6.530267

:NEC01: NUCLEAR AND ELECTRONIC CHARGE     76.00000    75.99212
     
       CHARGES OF OLD CHARGE DENSITY
:OTO   : INTERSTITIAL CHARGE =     6.773050
:OTO001: CHARGE SPHERE  1    =    27.375238
:OTO002: CHARGE SPHERE  2    =    28.791179
:OTO003: CHARGE SPHERE  3    =     6.530266

:NEC02: NUCLEAR AND ELECTRONIC CHARGE     76.00000    76.00000
     
       CONVERGENCE TEST
:DTO001: DIFFERENCE IN SPHERE  1 =  0.0000004
:DTO002: DIFFERENCE IN SPHERE  2 =  0.0000004
:DTO003: DIFFERENCE IN SPHERE  3 =  0.0000001

:DIS  :  CHARGE DISTANCE       ( 0.0000004 for atom    2 spin 1)      0.0000002
:BIG check (qbig,qrms,qtot)    0.128D-06   0.199D-06   0.249D-06
 
******************************************************
* MULTISECANT MIXING VER6 RELEASE 6.0 OPTIONS        *
* Standard Mode with controls                        *
* Regularization       1.000E-06                     *
* Trust Region Control Active                        *
* Max Number of Memory Steps    8                    *
******************************************************
 
:PLANE:  INTERSTITIAL TOTAL      1.75393 DISTAN  5.905E-06 % 
:CHARG:  CLM CHARGE   /ATOM     75.92735 DISTAN  4.693E-07 % 
 
 Step History DMIX, Red, Pred, Trust, FRMS, FABS
 14  2.0000E-01  1.7227E-01  1.9715E-01  4.7575E+00
 15  2.0000E-01  5.5319E-01  7.4028E-01  4.3110E+00
 16  2.0000E-01  3.0029E-01  6.8601E-01  4.2366E+00
 17  2.0000E-01  3.7298E-01  7.1605E-01  2.0000E+00
 18  2.0000E-01  5.3710E-01  7.7202E-01  4.6119E+00
 19  2.0000E-01  6.3818E-01  8.9066E-01  4.1504E+00
 20  2.0000E-01  2.8355E-01  4.3328E-01  4.4161E+00
 21  2.0000E-01  1.0000E+00  5.7284E-01  4.6852E+00
  
:NORMS:  Nuclear, Spectral, Froebius, Shanno-Pua   0.1291E+01  0.1051E+01  0.1206E+01  0.7651E+00
:INFO :  Number of Memory Steps    8 Skipping   12
:INFO :  SLambda=    1.3333333  Max    1.3333333

Eigenvalues, unscaled except for SY+YY
   #     SY Real        SY Imag          SS             YY         SY+YY Real      SY+YY Imag
   1   2.485931E+00   0.000000E+00   2.474669E+00   2.733610E+00   6.002859E+00   0.000000E+00
   2   1.331641E+00   0.000000E+00   1.422027E+00   1.754347E+00   3.253030E+00   0.000000E+00
   3   9.194773E-01   0.000000E+00   8.561473E-01   1.463179E+00   2.853081E+00   0.000000E+00
   4   5.907506E-01   0.000000E+00   3.616125E-01   1.112219E+00   1.978341E+00   0.000000E+00
   5   3.400577E-01   0.000000E+00   2.747240E-01   5.558661E-01   1.030088E+00   0.000000E+00
   6   1.715478E-01   0.000000E+00   2.427184E-05   2.886720E-01   5.699771E-01   0.000000E+00
   7   5.129375E-05   0.000000E+00   6.349671E-02   1.062926E-04   1.802879E-04   0.000000E+00
   8   6.332522E-02   0.000000E+00   5.038694E-02   9.200010E-02   1.828194E-01   0.000000E+00
 
:INFO :  Singular value   6.012E+00 Weight  1.0000E+00 Projections  -1.943E-05 -6.952E-08
:INFO :  Singular value   3.273E+00 Weight  1.0000E+00 Projections   1.183E-05  3.405E-09
:INFO :  Singular value   2.883E+00 Weight  1.0000E+00 Projections   2.041E-05  4.211E-07
:INFO :  Singular value   1.949E+00 Weight  1.0000E+00 Projections  -4.674E-05  4.697E-08
:INFO :  Singular value   1.030E+00 Weight  1.0000E+00 Projections   5.756E-05  3.923E-07
:INFO :  Singular value   5.686E-01 Weight  1.0000E+00 Projections  -7.470E-05  4.398E-07
:INFO :  Singular value   1.827E-01 Weight  1.0000E+00 Projections   4.801E-05 -5.681E-07
:INFO :  Singular value   1.803E-04 Weight  9.9977E-01 Projections  -7.682E-06  1.199E-04
 
:DIRM :  MEMORY 8/8 RESCALE  13.83 RED 0.394 PRED 0.573 NEXT 0.687
:INFO :  Blimit    4.604E+00  1.269E+00  1.000E+00  5.074E+00
:DIRP :  |MSR1|= 9.559E-07 |PRATT|= 1.432E-06 ANGLE=  37.0 DEGREES
:DIRQ :  |MSR1|= 0.000E+00 |PRATT|= 0.000E+00 ANGLE=   0.0 DEGREES
:DIR  :  |MSR1|= 1.081E-06 |PRATT|= 1.787E-06 ANGLE=  34.9 DEGREES
:MIX  :   MSE1   REGULARIZATION: 2.73E-06  GREED: 0.200  Newton 1.00  0.60                
     
       CHARGES OF MIXED CHARGE DENSITY
:CTO   : INTERSTITIAL CHARGE =     6.773050
:CTO001: CHARGE SPHERE  1    =    27.375238
:CTO002: CHARGE SPHERE  2    =    28.791179
:CTO003: CHARGE SPHERE  3    =     6.530267

:NEC03: NUCLEAR AND ELECTRONIC CHARGE     76.00000    76.00000

PW CHANGE     H    K    L       Current     Change     Residue
:PTO001:      0    0    0  6.29459765E-02 -1.921E-10  4.999E-10
:PTO002:     -1   -1   -1 -2.41253441E-02  2.748E-09  4.203E-09
:PTO003:     -2   -2   -2 -6.85515691E-03  2.330E-11  1.420E-10
:PTO004:     -1    0    0  1.03380025E-01  2.116E-09  3.841E-09
:PTO005:     -1   -1    0  6.57208646E-02 -5.873E-10  4.004E-10
:PTO006:     -2   -1   -1 -6.29129816E-02  8.954E-10 -5.344E-10
:PTO007:     -2   -2   -1 -8.13004365E-02  2.857E-09  1.207E-09
:PTO008:     -3   -3   -3  2.83519929E-02  9.603E-10  2.241E-09
:PTO009:     -3   -2   -2  9.18864916E-03  2.100E-09  3.806E-09
:PTO010:     -3   -3   -2  4.51921180E-02  9.399E-10  3.787E-09
:PTO011:     -1    0    1  4.16518273E-02 -6.093E-10  2.642E-09
:PTO012:     -2   -1    0 -2.98401101E-02  1.851E-09  8.541E-10

:ENE  : ********** TOTAL ENERGY IN Ry =        -7499.42948441

       TOTAL FORCE IN mRy/a.u. = |F|     Fx             Fy             Fz     with/without FOR in case.in2
:FOR001:   1.ATOM          0.000          0.000          0.000          0.000 partial forces
:FOR002:   2.ATOM          0.000          0.000          0.000          0.000 partial forces
:FOR003:   3.ATOM          7.511          0.000          0.000         -7.511 partial forces
       TOTAL FORCE WITH RESPECT TO GLOBAL CARTESIAN COORDINATES:
:FCA001:   1.ATOM                         0.000          0.000          0.000 partial forces
:FCA002:   2.ATOM                         0.000          0.000          0.000 partial forces
:FCA003:   3.ATOM                         0.000          0.000         -7.511 partial forces
       TOTAL FORCE WITH RESPECT TO THE GLOBAL COORDINATE SYSTEM:
:FGL001:   1.ATOM                 0.000000000     0.000000000     0.000000000 partial forces
:FGL002:   2.ATOM                 0.000000000     0.000000000     0.000000000 partial forces
:FGL003:   3.ATOM                -7.511253553    -7.511253553    -7.511253553 partial forces
