
:LABEL1: Calculations in /home/stevezhang/work/CuMO2/convergence/CuGaO2/rkmax_7-scfk_6c/CuGaO2
:LABEL2: on MZ at Wed Jun 23 15:51:27 CST 2021
:LABEL3: using WIEN2k_14.2 (Release 15/10/2014) in /home/stevezhang/wien2k/v14.2
:LABEL4: using the command: run_lapw -ec 0.000000001


            ---------
:ITE022: 22. ITERATION
            ---------

:NATO :    3 INDEPENDENT AND    4 TOTAL ATOMS IN UNITCELL
       SUBSTANCE: CuGaO2 KoehlerB86                                           

       LATTICE                      = R   
:POT  : POTENTIAL OPTION EX_PBE EC_PBE VX_PBE VC_PBE
:LAT  : LATTICE CONSTANTS=  5.63135  5.63135 32.31415
:VOL  : UNIT CELL VOLUME =     295.82013
       MODE OF CALCULATION IS       = RELA
       NON-SPINPOLARIZED CALCULATION
:IFFT  : FFT-parameters:   90   90   90 Factor: 2.00
       ATOMNUMBER=  1 Cu1        VCOUL-ZERO =  0.33671E+00
:EFG001:                        EFG         =    -5.75560   *10**21  V / m**2
                               V20  TOT/SRF=    -4.98449     0.18221
                               V22  TOT/SRF=     0.00000     0.00000
                               V22M TOT/SRF=     0.00000     0.00000
                               V21  TOT/SRF=     0.00000     0.00000
                               V21M TOT/SRF=     0.00000     0.00000

              2.87780    0.00000    0.00000        2.87780    0.00000    0.00000
              0.00000    2.87780    0.00000        0.00000    2.87780    0.00000
              0.00000    0.00000   -5.75560        0.00000    0.00000   -5.75560

         MAIN DIRECTIONS OF THE EFG   1.0000  0.0000  0.0000
                                      0.0000  1.0000  0.0000
                                      0.0000  0.0000  1.0000
:ANG001:  ANGLE WITH OLD X-AXIS =         0.0

:ETA001:                         ASYMM. ETA =     0.00000


       ATOMNUMBER=  2 Ga1        VCOUL-ZERO =  0.97972E-01
:EFG002:                        EFG         =     3.51924   *10**21  V / m**2
                               V20  TOT/SRF=     3.04775    -0.04559
                               V22  TOT/SRF=     0.00000     0.00000
                               V22M TOT/SRF=     0.00000     0.00000
                               V21  TOT/SRF=     0.00000     0.00000
                               V21M TOT/SRF=     0.00000     0.00000

             -1.75962    0.00000    0.00000       -1.75962    0.00000    0.00000
              0.00000   -1.75962    0.00000        0.00000   -1.75962    0.00000
              0.00000    0.00000    3.51924        0.00000    0.00000    3.51924

         MAIN DIRECTIONS OF THE EFG   1.0000  0.0000  0.0000
                                      0.0000  1.0000  0.0000
                                      0.0000  0.0000  1.0000
:ANG002:  ANGLE WITH OLD X-AXIS =         0.0

:ETA002:                         ASYMM. ETA =     0.00000


       ATOMNUMBER=  3 O 1        VCOUL-ZERO =  0.16616E+00
:EFG003:                        EFG         =     2.00288   *10**21  V / m**2
                               V20  TOT/SRF=     1.73454     0.31155
                               V22  TOT/SRF=     0.00000     0.00000
                               V22M TOT/SRF=     0.00000     0.00000
                               V21  TOT/SRF=     0.00000     0.00000
                               V21M TOT/SRF=     0.00000     0.00000

             -1.00144    0.00000    0.00000       -1.00144    0.00000    0.00000
              0.00000   -1.00144    0.00000        0.00000   -1.00144    0.00000
              0.00000    0.00000    2.00288        0.00000    0.00000    2.00288

         MAIN DIRECTIONS OF THE EFG   1.0000  0.0000  0.0000
                                      0.0000  1.0000  0.0000
                                      0.0000  0.0000  1.0000
:ANG003:  ANGLE WITH OLD X-AXIS =         0.0

:ETA003:                         ASYMM. ETA =     0.00000


     HELLMANN-FEYNMAN-FORCE IN mRy/a.u. = |F|  Fx       Fy             Fz
:FHF001:   1.ATOM      0.000000000      0.000000000      0.000000000      0.000000000

     HELLMANN-FEYNMAN-FORCE IN mRy/a.u. = |F|  Fx       Fy             Fz
:FHF002:   2.ATOM      0.000000000      0.000000000      0.000000000      0.000000000

     HELLMANN-FEYNMAN-FORCE IN mRy/a.u. = |F|  Fx       Fy             Fz
:FHF003:   3.ATOM     11.472212265      0.000000000      0.000000000    -11.472212265

:FIT001: LUSE= 13 SIGMA OF V-XC FIT FOR ATOM  1  0.7428111E-02
:FIT001: LUSE= 13 SIGMA OF V-XC FIT FOR ATOM  1  0.7428111E-02
:FIT002: LUSE= 13 SIGMA OF V-XC FIT FOR ATOM  2  0.1629407E-01
:FIT002: LUSE= 13 SIGMA OF V-XC FIT FOR ATOM  2  0.1629407E-01
:FIT003: LUSE= 13 SIGMA OF V-XC FIT FOR ATOM  3  0.2267527E-03
:FIT003: LUSE= 13 SIGMA OF V-XC FIT FOR ATOM  3  0.2267527E-03
:DEN  : DENSITY INTEGRAL  =         -3227.00554699   (Ry)
       ELS_POTENTIAL_AT Z=0 and Z=0.5:   0.00000   0.00000
       ELS_POTENTIAL_AT Y=0 and Y=0.5:   0.00000   0.00000
:VZERO:v0,v0c,v0x  -0.78100   0.00000  -0.78100 v5,v5c,v5x  -0.78100   0.00000  -0.78100
:VZERY:v0,v0c,v0x  -0.78100   0.00000  -0.78100 v5,v5c,v5x  -0.78100   0.00000  -0.78100
:VZERX:v0,v0c,v0x  -2.09255  -0.96314  -1.12941 v5,v5c,v5x  -0.29309   0.07269  -0.36578

          ATOMIC SPHERE DEPENDENT PARAMETERS FOR ATOM  Cu1       
:e__0001: OVERALL ENERGY PARAMETER IS    0.2708
          OVERALL BASIS SET ON ATOM IS LAPW
:E1_0001: E( 1)=    0.2708
             APW+lo
:E1_0001: E( 1)=   -4.6059   E(BOTTOM)=   -4.673   E(TOP)=   -4.538  1  2   168
             LOCAL ORBITAL
:E2_0001: E( 2)=    0.3152   E(BOTTOM)=   -0.018   E(TOP)=    0.648  0  1   136
             APW+lo
:E0_0001: E( 0)=    0.2708
             APW+lo

          ATOMIC SPHERE DEPENDENT PARAMETERS FOR ATOM  Ga1       
:e__0002: OVERALL ENERGY PARAMETER IS    0.2708
          OVERALL BASIS SET ON ATOM IS LAPW
:E2_0002: E( 2)=   -0.6246   E(BOTTOM)=   -0.831   E(TOP)=   -0.418  0  1   150
             APW+lo
:E2_0002: E( 2)=    0.6708
             LOCAL ORBITAL
:E0_0002: E( 0)=    0.2708
             APW+lo
:E1_0002: E( 1)=    0.2708
             APW+lo

          ATOMIC SPHERE DEPENDENT PARAMETERS FOR ATOM  O 1       
:e__0003: OVERALL ENERGY PARAMETER IS    0.2708
          OVERALL BASIS SET ON ATOM IS LAPW
:E0_0003: E( 0)=   -1.5500   E(BOTTOM)=   -2.612   E(TOP)= -200.000  1 -1   235
             APW+lo
:E0_0003: E( 0)=    0.6708
             LOCAL ORBITAL
:E1_0003: E( 1)=    0.2708
             APW+lo

       K=   0.00000   0.00000   0.00000            1
:RKM  : MATRIX SIZE   653LOs:  36  RKM= 6.99  WEIGHT= 1.00  PGR:    
       EIGENVALUES ARE:
:EIG00001:      -4.6027053   -4.5852792   -4.5852792   -1.0569066   -0.9138668
:EIG00006:      -0.6037386   -0.6037386   -0.5966262   -0.5804726   -0.5804726
:EIG00011:      -0.1143126    0.1965675    0.2129605    0.2358625    0.2358625
:EIG00016:       0.2537647    0.2537647    0.3525549    0.3525549    0.4159332
:EIG00021:       0.4159332    0.5423534    0.8358189    0.8812287    1.3336855
:EIG00026:       1.3336855    1.3385586    1.6534924    1.7175234    1.7175234
:EIG00031:       1.7610464    1.8080359    1.8080359    1.9009100
       ********************************************************

:KPT   :      NUMBER OF K-POINTS:    32
       Insulator, EF-inconsistency corrected
:GAP  :    0.0715 Ry =     0.973 eV   (provided you have a proper k-mesh)
         Bandranges (emin - emax) and occupancy:
:BAN00011:  11   -0.131484   -0.030869  2.00000000
:BAN00012:  12   -0.072710    0.196568  2.00000000
:BAN00013:  13    0.014114    0.222564  2.00000000
:BAN00014:  14    0.087310    0.235863  2.00000000
:BAN00015:  15    0.140079    0.235863  2.00000000
:BAN00016:  16    0.211379    0.281335  2.00000000
:BAN00017:  17    0.253765    0.352317  2.00000000
:BAN00018:  18    0.340152    0.381710  2.00000000
:BAN00019:  19    0.352488    0.398546  2.00000000
:BAN00020:  20    0.384958    0.423372  2.00000000
:BAN00021:  21    0.393314    0.470813  2.00000000
:BAN00022:  22    0.542353    0.842459  0.00000000
:BAN00023:  23    0.735155    0.898517  0.00000000
:BAN00024:  24    0.876427    1.115261  0.00000000
:BAN00025:  25    1.022014    1.333686  0.00000000
:BAN00026:  26    1.185549    1.367159  0.00000000
        Energy to separate low and high energystates:   -0.18148


:NOE  : NUMBER OF ELECTRONS          =  42.000

:FER  : F E R M I - ENERGY(TETRAH.M.)=   0.4708125116
:GMA  : POTENTIAL AND CHARGE CUT-OFF  12.00 Ry**.5




:POS001: ATOM   -1 X,Y,Z = 0.00000 0.00000 0.00000  MULT= 1  ZZ= 29.000  Cu1       

       LMMAX  7
       LM=   0 0  2 0  4 0  4 3  6 0  6 3  6 6

:CHA001: TOTAL VALENCE CHARGE INSIDE SPHERE   1 =  15.3767    (RMT=  2.0000 )
:PCS001: PARTIAL CHARGES SPHERE =  1 S,P,D,F,PZ,PXY, D-Z2,D-XY,X2Y2,D-XZ,YZ 
:QTL001: 0.2783 6.1528 8.9207 0.0187 2.1133 4.0395 0.0000 1.5678 3.6312 3.7217 0.0000 0.0000
        Q-s-low E-s-low   Q-p-low E-p-low   Q-d-low E-d-low   Q-f-low E-f-low
:EPL001:  0.0209 -0.8822    6.0052 -4.5777    0.0256 -0.8718    0.0033 -0.8928
        Q-s-hi  E-s-hi    Q-p-hi  E-p-hi    Q-d-hi  E-d-hi    Q-f-hi  E-f-hi 
:EPH001:  0.2574  0.2079    0.1476  0.1635    8.8951  0.3513    0.0154  0.1502
:VZZ001: EFG INSIDE SPHERE   1 =    -6.066400      UP TO R =   2.00000




:POS002: ATOM   -2 X,Y,Z = 0.50000 0.50000 0.50000  MULT= 1  ZZ= 31.000  Ga1       

       LMMAX  7
       LM=   0 0  2 0  4 0  4 3  6 0  6 3  6 6

:CHA002: TOTAL VALENCE CHARGE INSIDE SPHERE   2 =  10.7975    (RMT=  2.0000 )
:PCS002: PARTIAL CHARGES SPHERE =  2 S,P,D,F,PZ,PXY, D-Z2,D-XY,X2Y2,D-XZ,YZ 
:QTL002: 0.4403 0.4099 9.9044 0.0341 0.1238 0.2861 0.0000 1.9622 3.9637 3.9786 0.0000 0.0000
        Q-s-low E-s-low   Q-p-low E-p-low   Q-d-low E-d-low   Q-f-low E-f-low
:EPL002:  0.0584 -0.9773    0.0555 -0.9154    9.6089 -0.5880    0.0051 -0.9118
        Q-s-hi  E-s-hi    Q-p-hi  E-p-hi    Q-d-hi  E-d-hi    Q-f-hi  E-f-hi 
:EPH002:  0.3819 -0.0501    0.3545  0.1037    0.2955  0.1471    0.0289  0.1620
:VZZ002: EFG INSIDE SPHERE   2 =     3.627499      UP TO R =   2.00000




:POS003: ATOM   -3 X,Y,Z = 0.10802 0.10802 0.10802  MULT= 2  ZZ=  8.000  O 1       

       LMMAX 12
       LM=   0 0  1 0  2 0  3 0  3 3  4 0  4 3  5 0  5 3  6 0  6 3  6 6

:CHA003: TOTAL VALENCE CHARGE INSIDE SPHERE   3 =   4.5303    (RMT=  1.4000 )
:PCS003: PARTIAL CHARGES SPHERE =  3 S,P,D,F,PZ,PXY, D-Z2,D-XY,X2Y2,D-XZ,YZ 
:QTL003: 1.3907 3.1302 0.0080 0.0011 1.0290 2.1012 0.0000 0.0016 0.0018 0.0046 0.0000 0.0000
        Q-s-low E-s-low   Q-p-low E-p-low   Q-d-low E-d-low   Q-f-low E-f-low
:EPL003:  1.3262 -0.9312    0.0424 -0.6222    0.0017 -0.7317    0.0004 -0.8613
        Q-s-hi  E-s-hi    Q-p-hi  E-p-hi    Q-d-hi  E-d-hi    Q-f-hi  E-f-hi 
:EPH003:  0.0646  0.0369    3.0877  0.1416    0.0063  0.2392    0.0007  0.2789
:VZZ003: EFG INSIDE SPHERE   3 =     1.610995      UP TO R =   1.40000

:CHA  : TOTAL VALENCE CHARGE INSIDE UNIT CELL =      42.000000

:SUM  : SUM OF EIGENVALUES =         -32.257962224


        1.ATOM      Cu1                   5 CORE STATES
:1S 001: 1S                -649.686795973 Ry
:2S 001: 2S                 -77.378492005 Ry
:2PP001: 2P*                -67.696084491 Ry
:2P 001: 2P                 -66.189766547 Ry
:3S 001: 3S                  -7.723085871 Ry

        2.ATOM      Ga1                   7 CORE STATES
:1S 002: 1S                -750.834024303 Ry
:2S 002: 2S                 -91.889153591 Ry
:2PP002: 2P*                -81.243472328 Ry
:2P 002: 2P                 -79.210805647 Ry
:3S 002: 3S                 -10.051297212 Ry
:3PP002: 3P*                 -6.612191899 Ry
:3P 002: 3P                  -6.346372320 Ry

        3.ATOM      O 1                   1 CORE STATES
       CORE-FORCE in mRy/a.u. = |F|      Fx             Fy             Fz
:FCO003:   3.ATOM      3.960775590      0.000000000      0.000000000      3.960775590

:1S 003: 1S                 -36.737250448 Ry
:CINT001 Core Integral Atom   1   11.998495
:CINT002 Core Integral Atom   2   17.993652
:CINT003 Core Integral Atom   3    1.999999

       DENSITY AT NUCLEUS
        JATOM        VALENCE       SEMI-CORE          CORE           TOTAL
:RTO001:   1        7.965471        0.000000    22630.695539    22638.661010
:RTO002:   2       12.938089        0.000000    27809.865633    27822.803722
:RTO003:   3       14.990060        0.000000      304.059442      319.049502
     
       CHARGES OF NEW CHARGE DENSITY
:NTO   : INTERSTITIAL CHARGE =     6.765167
:NTO001: CHARGE SPHERE  1    =    27.375238
:NTO002: CHARGE SPHERE  2    =    28.791179
:NTO003: CHARGE SPHERE  3    =     6.530267

:NEC01: NUCLEAR AND ELECTRONIC CHARGE     76.00000    75.99212
     
       CHARGES OF OLD CHARGE DENSITY
:OTO   : INTERSTITIAL CHARGE =     6.773050
:OTO001: CHARGE SPHERE  1    =    27.375238
:OTO002: CHARGE SPHERE  2    =    28.791179
:OTO003: CHARGE SPHERE  3    =     6.530267

:NEC02: NUCLEAR AND ELECTRONIC CHARGE     76.00000    76.00000
     
       CONVERGENCE TEST
:DTO001: DIFFERENCE IN SPHERE  1 =  0.0000002
:DTO002: DIFFERENCE IN SPHERE  2 =  0.0000001
:DTO003: DIFFERENCE IN SPHERE  3 =  0.0000000

:DIS  :  CHARGE DISTANCE       ( 0.0000002 for atom    1 spin 1)      0.0000001
:BIG check (qbig,qrms,qtot)    0.626D-07   0.775D-07   0.889D-07
 
******************************************************
* MULTISECANT MIXING VER6 RELEASE 6.0 OPTIONS        *
* Standard Mode with controls                        *
* Regularization       1.000E-06                     *
* Trust Region Control Active                        *
* Max Number of Memory Steps    8                    *
******************************************************
 
:PLANE:  INTERSTITIAL TOTAL      1.75393 DISTAN  3.201E-06 % 
:CHARG:  CLM CHARGE   /ATOM     75.92735 DISTAN  2.216E-07 % 
:DIRM :  MEMORY  0/ 8 RESCALES   1.00
:MIX  :   PRATT  REGULARIZATION: 1.00E-06  GREED: 0.200
     
       CHARGES OF MIXED CHARGE DENSITY
:CTO   : INTERSTITIAL CHARGE =     6.773050
:CTO001: CHARGE SPHERE  1    =    27.375238
:CTO002: CHARGE SPHERE  2    =    28.791179
:CTO003: CHARGE SPHERE  3    =     6.530267

:NEC03: NUCLEAR AND ELECTRONIC CHARGE     76.00000    76.00000

PW CHANGE     H    K    L       Current     Change     Residue
:PTO001:      0    0    0  6.29459767E-02  1.792E-10  8.958E-10
:PTO002:     -1   -1   -1 -2.41253440E-02  7.697E-11  3.849E-10
:PTO003:     -2   -2   -2 -6.85515669E-03  2.192E-10  1.096E-09
:PTO004:     -1    0    0  1.03380025E-01  1.024E-10  5.121E-10
:PTO005:     -1   -1    0  6.57208649E-02  2.387E-10  1.193E-09
:PTO006:     -2   -1   -1 -6.29129816E-02 -3.684E-11 -1.842E-10
:PTO007:     -2   -2   -1 -8.13004366E-02 -1.270E-10 -6.348E-10
:PTO008:     -3   -3   -3  2.83519931E-02  1.712E-10  8.558E-10
:PTO009:     -3   -2   -2  9.18864960E-03  4.409E-10  2.204E-09
:PTO010:     -3   -3   -2  4.51921186E-02  5.372E-10  2.686E-09
:PTO011:     -1    0    1  4.16518278E-02  5.388E-10  2.694E-09
:PTO012:     -2   -1    0 -2.98401101E-02  1.318E-11  6.589E-11

:ENE  : ********** TOTAL ENERGY IN Ry =        -7499.42948441

       TOTAL FORCE IN mRy/a.u. = |F|     Fx             Fy             Fz     with/without FOR in case.in2
:FOR001:   1.ATOM          0.000          0.000          0.000          0.000 partial forces
:FOR002:   2.ATOM          0.000          0.000          0.000          0.000 partial forces
:FOR003:   3.ATOM          7.511          0.000          0.000         -7.511 partial forces
       TOTAL FORCE WITH RESPECT TO GLOBAL CARTESIAN COORDINATES:
:FCA001:   1.ATOM                         0.000          0.000          0.000 partial forces
:FCA002:   2.ATOM                         0.000          0.000          0.000 partial forces
:FCA003:   3.ATOM                         0.000          0.000         -7.511 partial forces
       TOTAL FORCE WITH RESPECT TO THE GLOBAL COORDINATE SYSTEM:
:FGL001:   1.ATOM                 0.000000000     0.000000000     0.000000000 partial forces
:FGL002:   2.ATOM                 0.000000000     0.000000000     0.000000000 partial forces
:FGL003:   3.ATOM                -7.511436675    -7.511436675    -7.511436675 partial forces


            ---------
:ITE023: 23. ITERATION
            ---------

:NATO :    3 INDEPENDENT AND    4 TOTAL ATOMS IN UNITCELL
       SUBSTANCE: CuGaO2 KoehlerB86                                           

       LATTICE                      = R   
:POT  : POTENTIAL OPTION EX_PBE EC_PBE VX_PBE VC_PBE
:LAT  : LATTICE CONSTANTS=  5.63135  5.63135 32.31415
:VOL  : UNIT CELL VOLUME =     295.82013
       MODE OF CALCULATION IS       = RELA
       NON-SPINPOLARIZED CALCULATION
:IFFT  : FFT-parameters:   90   90   90 Factor: 2.00
       ATOMNUMBER=  1 Cu1        VCOUL-ZERO =  0.33671E+00
:EFG001:                        EFG         =    -5.75560   *10**21  V / m**2
                               V20  TOT/SRF=    -4.98450     0.18221
                               V22  TOT/SRF=     0.00000     0.00000
                               V22M TOT/SRF=     0.00000     0.00000
                               V21  TOT/SRF=     0.00000     0.00000
                               V21M TOT/SRF=     0.00000     0.00000

              2.87780    0.00000    0.00000        2.87780    0.00000    0.00000
              0.00000    2.87780    0.00000        0.00000    2.87780    0.00000
              0.00000    0.00000   -5.75560        0.00000    0.00000   -5.75560

         MAIN DIRECTIONS OF THE EFG   1.0000  0.0000  0.0000
                                      0.0000  1.0000  0.0000
                                      0.0000  0.0000  1.0000
:ANG001:  ANGLE WITH OLD X-AXIS =         0.0

:ETA001:                         ASYMM. ETA =     0.00000


       ATOMNUMBER=  2 Ga1        VCOUL-ZERO =  0.97972E-01
:EFG002:                        EFG         =     3.51924   *10**21  V / m**2
                               V20  TOT/SRF=     3.04775    -0.04559
                               V22  TOT/SRF=     0.00000     0.00000
                               V22M TOT/SRF=     0.00000     0.00000
                               V21  TOT/SRF=     0.00000     0.00000
                               V21M TOT/SRF=     0.00000     0.00000

             -1.75962    0.00000    0.00000       -1.75962    0.00000    0.00000
              0.00000   -1.75962    0.00000        0.00000   -1.75962    0.00000
              0.00000    0.00000    3.51924        0.00000    0.00000    3.51924

         MAIN DIRECTIONS OF THE EFG   1.0000  0.0000  0.0000
                                      0.0000  1.0000  0.0000
                                      0.0000  0.0000  1.0000
:ANG002:  ANGLE WITH OLD X-AXIS =         0.0

:ETA002:                         ASYMM. ETA =     0.00000


       ATOMNUMBER=  3 O 1        VCOUL-ZERO =  0.16616E+00
:EFG003:                        EFG         =     2.00288   *10**21  V / m**2
                               V20  TOT/SRF=     1.73454     0.31155
                               V22  TOT/SRF=     0.00000     0.00000
                               V22M TOT/SRF=     0.00000     0.00000
                               V21  TOT/SRF=     0.00000     0.00000
                               V21M TOT/SRF=     0.00000     0.00000

             -1.00144    0.00000    0.00000       -1.00144    0.00000    0.00000
              0.00000   -1.00144    0.00000        0.00000   -1.00144    0.00000
              0.00000    0.00000    2.00288        0.00000    0.00000    2.00288

         MAIN DIRECTIONS OF THE EFG   1.0000  0.0000  0.0000
                                      0.0000  1.0000  0.0000
                                      0.0000  0.0000  1.0000
:ANG003:  ANGLE WITH OLD X-AXIS =         0.0

:ETA003:                         ASYMM. ETA =     0.00000


     HELLMANN-FEYNMAN-FORCE IN mRy/a.u. = |F|  Fx       Fy             Fz
:FHF001:   1.ATOM      0.000000000      0.000000000      0.000000000      0.000000000

     HELLMANN-FEYNMAN-FORCE IN mRy/a.u. = |F|  Fx       Fy             Fz
:FHF002:   2.ATOM      0.000000000      0.000000000      0.000000000      0.000000000

     HELLMANN-FEYNMAN-FORCE IN mRy/a.u. = |F|  Fx       Fy             Fz
:FHF003:   3.ATOM     11.472086755      0.000000000      0.000000000    -11.472086755

:FIT001: LUSE= 13 SIGMA OF V-XC FIT FOR ATOM  1  0.7428111E-02
:FIT001: LUSE= 13 SIGMA OF V-XC FIT FOR ATOM  1  0.7428111E-02
:FIT002: LUSE= 13 SIGMA OF V-XC FIT FOR ATOM  2  0.1629407E-01
:FIT002: LUSE= 13 SIGMA OF V-XC FIT FOR ATOM  2  0.1629407E-01
:FIT003: LUSE= 13 SIGMA OF V-XC FIT FOR ATOM  3  0.2267527E-03
:FIT003: LUSE= 13 SIGMA OF V-XC FIT FOR ATOM  3  0.2267527E-03
:DEN  : DENSITY INTEGRAL  =         -3227.00554729   (Ry)
       ELS_POTENTIAL_AT Z=0 and Z=0.5:   0.00000   0.00000
       ELS_POTENTIAL_AT Y=0 and Y=0.5:   0.00000   0.00000
:VZERO:v0,v0c,v0x  -0.78100   0.00000  -0.78100 v5,v5c,v5x  -0.78100   0.00000  -0.78100
:VZERY:v0,v0c,v0x  -0.78100   0.00000  -0.78100 v5,v5c,v5x  -0.78100   0.00000  -0.78100
:VZERX:v0,v0c,v0x  -2.09255  -0.96314  -1.12941 v5,v5c,v5x  -0.29309   0.07269  -0.36578

          ATOMIC SPHERE DEPENDENT PARAMETERS FOR ATOM  Cu1       
:e__0001: OVERALL ENERGY PARAMETER IS    0.2708
          OVERALL BASIS SET ON ATOM IS LAPW
:E1_0001: E( 1)=    0.2708
             APW+lo
:E1_0001: E( 1)=   -4.6059   E(BOTTOM)=   -4.673   E(TOP)=   -4.538  1  2   168
             LOCAL ORBITAL
:E2_0001: E( 2)=    0.3152   E(BOTTOM)=   -0.018   E(TOP)=    0.648  0  1   135
             APW+lo
:E0_0001: E( 0)=    0.2708
             APW+lo

          ATOMIC SPHERE DEPENDENT PARAMETERS FOR ATOM  Ga1       
:e__0002: OVERALL ENERGY PARAMETER IS    0.2708
          OVERALL BASIS SET ON ATOM IS LAPW
:E2_0002: E( 2)=   -0.6246   E(BOTTOM)=   -0.831   E(TOP)=   -0.418  0  1   151
             APW+lo
:E2_0002: E( 2)=    0.6708
             LOCAL ORBITAL
:E0_0002: E( 0)=    0.2708
             APW+lo
:E1_0002: E( 1)=    0.2708
             APW+lo

          ATOMIC SPHERE DEPENDENT PARAMETERS FOR ATOM  O 1       
:e__0003: OVERALL ENERGY PARAMETER IS    0.2708
          OVERALL BASIS SET ON ATOM IS LAPW
:E0_0003: E( 0)=   -1.5500   E(BOTTOM)=   -2.612   E(TOP)= -200.000  1 -1   235
             APW+lo
:E0_0003: E( 0)=    0.6708
             LOCAL ORBITAL
:E1_0003: E( 1)=    0.2708
             APW+lo

       K=   0.00000   0.00000   0.00000            1
:RKM  : MATRIX SIZE   653LOs:  36  RKM= 6.99  WEIGHT= 1.00  PGR:    
       EIGENVALUES ARE:
:EIG00001:      -4.6027053   -4.5852792   -4.5852792   -1.0569066   -0.9138668
:EIG00006:      -0.6037386   -0.6037386   -0.5966262   -0.5804726   -0.5804726
:EIG00011:      -0.1143126    0.1965675    0.2129605    0.2358625    0.2358625
:EIG00016:       0.2537647    0.2537647    0.3525549    0.3525549    0.4159332
:EIG00021:       0.4159332    0.5423534    0.8358189    0.8812287    1.3336855
:EIG00026:       1.3336855    1.3385586    1.6534924    1.7175234    1.7175234
:EIG00031:       1.7610464    1.8080359    1.8080359    1.9009100
       ********************************************************

:KPT   :      NUMBER OF K-POINTS:    32
       Insulator, EF-inconsistency corrected
:GAP  :    0.0715 Ry =     0.973 eV   (provided you have a proper k-mesh)
         Bandranges (emin - emax) and occupancy:
:BAN00011:  11   -0.131484   -0.030869  2.00000000
:BAN00012:  12   -0.072710    0.196568  2.00000000
:BAN00013:  13    0.014114    0.222564  2.00000000
:BAN00014:  14    0.087310    0.235863  2.00000000
:BAN00015:  15    0.140079    0.235863  2.00000000
:BAN00016:  16    0.211379    0.281335  2.00000000
:BAN00017:  17    0.253765    0.352317  2.00000000
:BAN00018:  18    0.340152    0.381710  2.00000000
:BAN00019:  19    0.352488    0.398546  2.00000000
:BAN00020:  20    0.384958    0.423372  2.00000000
:BAN00021:  21    0.393314    0.470813  2.00000000
:BAN00022:  22    0.542353    0.842459  0.00000000
:BAN00023:  23    0.735155    0.898517  0.00000000
:BAN00024:  24    0.876427    1.115261  0.00000000
:BAN00025:  25    1.022014    1.333686  0.00000000
:BAN00026:  26    1.185549    1.367159  0.00000000
        Energy to separate low and high energystates:   -0.18148


:NOE  : NUMBER OF ELECTRONS          =  42.000

:FER  : F E R M I - ENERGY(TETRAH.M.)=   0.4708125096
:GMA  : POTENTIAL AND CHARGE CUT-OFF  12.00 Ry**.5




:POS001: ATOM   -1 X,Y,Z = 0.00000 0.00000 0.00000  MULT= 1  ZZ= 29.000  Cu1       

       LMMAX  7
       LM=   0 0  2 0  4 0  4 3  6 0  6 3  6 6

:CHA001: TOTAL VALENCE CHARGE INSIDE SPHERE   1 =  15.3767    (RMT=  2.0000 )
:PCS001: PARTIAL CHARGES SPHERE =  1 S,P,D,F,PZ,PXY, D-Z2,D-XY,X2Y2,D-XZ,YZ 
:QTL001: 0.2783 6.1528 8.9207 0.0187 2.1133 4.0395 0.0000 1.5678 3.6312 3.7217 0.0000 0.0000
        Q-s-low E-s-low   Q-p-low E-p-low   Q-d-low E-d-low   Q-f-low E-f-low
:EPL001:  0.0209 -0.8822    6.0052 -4.5777    0.0256 -0.8718    0.0033 -0.8928
        Q-s-hi  E-s-hi    Q-p-hi  E-p-hi    Q-d-hi  E-d-hi    Q-f-hi  E-f-hi 
:EPH001:  0.2574  0.2079    0.1476  0.1635    8.8951  0.3513    0.0154  0.1502
:VZZ001: EFG INSIDE SPHERE   1 =    -6.066400      UP TO R =   2.00000




:POS002: ATOM   -2 X,Y,Z = 0.50000 0.50000 0.50000  MULT= 1  ZZ= 31.000  Ga1       

       LMMAX  7
       LM=   0 0  2 0  4 0  4 3  6 0  6 3  6 6

:CHA002: TOTAL VALENCE CHARGE INSIDE SPHERE   2 =  10.7975    (RMT=  2.0000 )
:PCS002: PARTIAL CHARGES SPHERE =  2 S,P,D,F,PZ,PXY, D-Z2,D-XY,X2Y2,D-XZ,YZ 
:QTL002: 0.4403 0.4099 9.9044 0.0341 0.1238 0.2861 0.0000 1.9622 3.9637 3.9786 0.0000 0.0000
        Q-s-low E-s-low   Q-p-low E-p-low   Q-d-low E-d-low   Q-f-low E-f-low
:EPL002:  0.0584 -0.9773    0.0555 -0.9154    9.6089 -0.5880    0.0051 -0.9118
        Q-s-hi  E-s-hi    Q-p-hi  E-p-hi    Q-d-hi  E-d-hi    Q-f-hi  E-f-hi 
:EPH002:  0.3819 -0.0501    0.3545  0.1037    0.2955  0.1471    0.0289  0.1620
:VZZ002: EFG INSIDE SPHERE   2 =     3.627499      UP TO R =   2.00000




:POS003: ATOM   -3 X,Y,Z = 0.10802 0.10802 0.10802  MULT= 2  ZZ=  8.000  O 1       

       LMMAX 12
       LM=   0 0  1 0  2 0  3 0  3 3  4 0  4 3  5 0  5 3  6 0  6 3  6 6

:CHA003: TOTAL VALENCE CHARGE INSIDE SPHERE   3 =   4.5303    (RMT=  1.4000 )
:PCS003: PARTIAL CHARGES SPHERE =  3 S,P,D,F,PZ,PXY, D-Z2,D-XY,X2Y2,D-XZ,YZ 
:QTL003: 1.3907 3.1302 0.0080 0.0011 1.0290 2.1012 0.0000 0.0016 0.0018 0.0046 0.0000 0.0000
        Q-s-low E-s-low   Q-p-low E-p-low   Q-d-low E-d-low   Q-f-low E-f-low
:EPL003:  1.3262 -0.9312    0.0424 -0.6222    0.0017 -0.7317    0.0004 -0.8613
        Q-s-hi  E-s-hi    Q-p-hi  E-p-hi    Q-d-hi  E-d-hi    Q-f-hi  E-f-hi 
:EPH003:  0.0646  0.0369    3.0877  0.1416    0.0063  0.2392    0.0007  0.2789
:VZZ003: EFG INSIDE SPHERE   3 =     1.610995      UP TO R =   1.40000

:CHA  : TOTAL VALENCE CHARGE INSIDE UNIT CELL =      42.000000

:SUM  : SUM OF EIGENVALUES =         -32.257962228


        1.ATOM      Cu1                   5 CORE STATES
:1S 001: 1S                -649.686795954 Ry
:2S 001: 2S                 -77.378491991 Ry
:2PP001: 2P*                -67.696084476 Ry
:2P 001: 2P                 -66.189766531 Ry
:3S 001: 3S                  -7.723085873 Ry

        2.ATOM      Ga1                   7 CORE STATES
:1S 002: 1S                -750.834024287 Ry
:2S 002: 2S                 -91.889153581 Ry
:2PP002: 2P*                -81.243472317 Ry
:2P 002: 2P                 -79.210805635 Ry
:3S 002: 3S                 -10.051297209 Ry
:3PP002: 3P*                 -6.612191896 Ry
:3P 002: 3P                  -6.346372316 Ry

        3.ATOM      O 1                   1 CORE STATES
       CORE-FORCE in mRy/a.u. = |F|      Fx             Fy             Fz
:FCO003:   3.ATOM      3.960720851      0.000000000      0.000000000      3.960720851

:1S 003: 1S                 -36.737250448 Ry
:CINT001 Core Integral Atom   1   11.998495
:CINT002 Core Integral Atom   2   17.993652
:CINT003 Core Integral Atom   3    1.999999

       DENSITY AT NUCLEUS
        JATOM        VALENCE       SEMI-CORE          CORE           TOTAL
:RTO001:   1        7.965471        0.000000    22630.695539    22638.661010
:RTO002:   2       12.938089        0.000000    27809.865633    27822.803722
:RTO003:   3       14.990060        0.000000      304.059442      319.049502
     
       CHARGES OF NEW CHARGE DENSITY
:NTO   : INTERSTITIAL CHARGE =     6.765167
:NTO001: CHARGE SPHERE  1    =    27.375238
:NTO002: CHARGE SPHERE  2    =    28.791179
:NTO003: CHARGE SPHERE  3    =     6.530267

:NEC01: NUCLEAR AND ELECTRONIC CHARGE     76.00000    75.99212
     
       CHARGES OF OLD CHARGE DENSITY
:OTO   : INTERSTITIAL CHARGE =     6.773050
:OTO001: CHARGE SPHERE  1    =    27.375238
:OTO002: CHARGE SPHERE  2    =    28.791179
:OTO003: CHARGE SPHERE  3    =     6.530267

:NEC02: NUCLEAR AND ELECTRONIC CHARGE     76.00000    76.00000
     
       CONVERGENCE TEST
:DTO001: DIFFERENCE IN SPHERE  1 =  0.0000001
:DTO002: DIFFERENCE IN SPHERE  2 =  0.0000001
:DTO003: DIFFERENCE IN SPHERE  3 =  0.0000000

:DIS  :  CHARGE DISTANCE       ( 0.0000001 for atom    1 spin 1)      0.0000001
:BIG check (qbig,qrms,qtot)    0.413D-07   0.526D-07   0.622D-07
 
******************************************************
* MULTISECANT MIXING VER6 RELEASE 6.0 OPTIONS        *
* Standard Mode with controls                        *
* Regularization       1.000E-06                     *
* Trust Region Control Active                        *
* Max Number of Memory Steps    8                    *
******************************************************
 
:PLANE:  INTERSTITIAL TOTAL      1.75393 DISTAN  2.599E-06 % 
:CHARG:  CLM CHARGE   /ATOM     75.92735 DISTAN  1.594E-07 % 
 
 Step History DMIX, Red, Pred, Trust, FRMS, FABS
  2  2.0000E-01  1.0000E+00  1.0000E+00  1.0000E+00
  
:DIRM :  MEMORY  1/ 8 RESCALES   8.46
:MIX  :   PRATT  REGULARIZATION: 1.00E-06  GREED: 0.200  Expand 1.00  0.20                
     
       CHARGES OF MIXED CHARGE DENSITY
:CTO   : INTERSTITIAL CHARGE =     6.773050
:CTO001: CHARGE SPHERE  1    =    27.375238
:CTO002: CHARGE SPHERE  2    =    28.791179
:CTO003: CHARGE SPHERE  3    =     6.530267

:NEC03: NUCLEAR AND ELECTRONIC CHARGE     76.00000    76.00000

PW CHANGE     H    K    L       Current     Change     Residue
:PTO001:      0    0    0  6.29459772E-02  4.479E-10  7.544E-10
:PTO002:     -1   -1   -1 -2.41253438E-02  1.924E-10  4.464E-10
:PTO003:     -2   -2   -2 -6.85515614E-03  5.481E-10  8.226E-10
:PTO004:     -1    0    0  1.03380025E-01  2.560E-10  5.875E-10
:PTO005:     -1   -1    0  6.57208655E-02  5.967E-10  1.128E-09
:PTO006:     -2   -1   -1 -6.29129817E-02 -9.210E-11 -1.037E-10
:PTO007:     -2   -2   -1 -8.13004369E-02 -3.174E-10 -5.769E-10
:PTO008:     -3   -3   -3  2.83519935E-02  4.279E-10  7.249E-10
:PTO009:     -3   -2   -2  9.18865070E-03  1.102E-09  1.648E-09
:PTO010:     -3   -3   -2  4.51921199E-02  1.343E-09  2.116E-09
:PTO011:     -1    0    1  4.16518292E-02  1.347E-09  2.233E-09
:PTO012:     -2   -1    0 -2.98401101E-02  3.295E-11  1.133E-10

:ENE  : ********** TOTAL ENERGY IN Ry =        -7499.42948441

       TOTAL FORCE IN mRy/a.u. = |F|     Fx             Fy             Fz     with/without FOR in case.in2
:FOR001:   1.ATOM          0.000          0.000          0.000          0.000 partial forces
:FOR002:   2.ATOM          0.000          0.000          0.000          0.000 partial forces
:FOR003:   3.ATOM          7.511          0.000          0.000         -7.511 partial forces
       TOTAL FORCE WITH RESPECT TO GLOBAL CARTESIAN COORDINATES:
:FCA001:   1.ATOM                         0.000          0.000          0.000 partial forces
:FCA002:   2.ATOM                         0.000          0.000          0.000 partial forces
:FCA003:   3.ATOM                         0.000          0.000         -7.511 partial forces
       TOTAL FORCE WITH RESPECT TO THE GLOBAL COORDINATE SYSTEM:
:FGL001:   1.ATOM                 0.000000000     0.000000000     0.000000000 partial forces
:FGL002:   2.ATOM                 0.000000000     0.000000000     0.000000000 partial forces
:FGL003:   3.ATOM                -7.511365904    -7.511365904    -7.511365904 partial forces


            ---------
:ITE024: 24. ITERATION
            ---------

:NATO :    3 INDEPENDENT AND    4 TOTAL ATOMS IN UNITCELL
       SUBSTANCE: CuGaO2 KoehlerB86                                           

       LATTICE                      = R   
:POT  : POTENTIAL OPTION EX_PBE EC_PBE VX_PBE VC_PBE
:LAT  : LATTICE CONSTANTS=  5.63135  5.63135 32.31415
:VOL  : UNIT CELL VOLUME =     295.82013
       MODE OF CALCULATION IS       = RELA
       NON-SPINPOLARIZED CALCULATION
:IFFT  : FFT-parameters:   90   90   90 Factor: 2.00
       ATOMNUMBER=  1 Cu1        VCOUL-ZERO =  0.33671E+00
:EFG001:                        EFG         =    -5.75560   *10**21  V / m**2
                               V20  TOT/SRF=    -4.98450     0.18221
                               V22  TOT/SRF=     0.00000     0.00000
                               V22M TOT/SRF=     0.00000     0.00000
                               V21  TOT/SRF=     0.00000     0.00000
                               V21M TOT/SRF=     0.00000     0.00000

              2.87780    0.00000    0.00000        2.87780    0.00000    0.00000
              0.00000    2.87780    0.00000        0.00000    2.87780    0.00000
              0.00000    0.00000   -5.75560        0.00000    0.00000   -5.75560

         MAIN DIRECTIONS OF THE EFG   1.0000  0.0000  0.0000
                                      0.0000  1.0000  0.0000
                                      0.0000  0.0000  1.0000
:ANG001:  ANGLE WITH OLD X-AXIS =         0.0

:ETA001:                         ASYMM. ETA =     0.00000


       ATOMNUMBER=  2 Ga1        VCOUL-ZERO =  0.97972E-01
:EFG002:                        EFG         =     3.51924   *10**21  V / m**2
                               V20  TOT/SRF=     3.04775    -0.04559
                               V22  TOT/SRF=     0.00000     0.00000
                               V22M TOT/SRF=     0.00000     0.00000
                               V21  TOT/SRF=     0.00000     0.00000
                               V21M TOT/SRF=     0.00000     0.00000

             -1.75962    0.00000    0.00000       -1.75962    0.00000    0.00000
              0.00000   -1.75962    0.00000        0.00000   -1.75962    0.00000
              0.00000    0.00000    3.51924        0.00000    0.00000    3.51924

         MAIN DIRECTIONS OF THE EFG   1.0000  0.0000  0.0000
                                      0.0000  1.0000  0.0000
                                      0.0000  0.0000  1.0000
:ANG002:  ANGLE WITH OLD X-AXIS =         0.0

:ETA002:                         ASYMM. ETA =     0.00000


       ATOMNUMBER=  3 O 1        VCOUL-ZERO =  0.16616E+00
:EFG003:                        EFG         =     2.00288   *10**21  V / m**2
                               V20  TOT/SRF=     1.73454     0.31155
                               V22  TOT/SRF=     0.00000     0.00000
                               V22M TOT/SRF=     0.00000     0.00000
                               V21  TOT/SRF=     0.00000     0.00000
                               V21M TOT/SRF=     0.00000     0.00000

             -1.00144    0.00000    0.00000       -1.00144    0.00000    0.00000
              0.00000   -1.00144    0.00000        0.00000   -1.00144    0.00000
              0.00000    0.00000    2.00288        0.00000    0.00000    2.00288

         MAIN DIRECTIONS OF THE EFG   1.0000  0.0000  0.0000
                                      0.0000  1.0000  0.0000
                                      0.0000  0.0000  1.0000
:ANG003:  ANGLE WITH OLD X-AXIS =         0.0

:ETA003:                         ASYMM. ETA =     0.00000


     HELLMANN-FEYNMAN-FORCE IN mRy/a.u. = |F|  Fx       Fy             Fz
:FHF001:   1.ATOM      0.000000000      0.000000000      0.000000000      0.000000000

     HELLMANN-FEYNMAN-FORCE IN mRy/a.u. = |F|  Fx       Fy             Fz
:FHF002:   2.ATOM      0.000000000      0.000000000      0.000000000      0.000000000

     HELLMANN-FEYNMAN-FORCE IN mRy/a.u. = |F|  Fx       Fy             Fz
:FHF003:   3.ATOM     11.471772981      0.000000000      0.000000000    -11.471772981

:FIT001: LUSE= 13 SIGMA OF V-XC FIT FOR ATOM  1  0.7428111E-02
:FIT001: LUSE= 13 SIGMA OF V-XC FIT FOR ATOM  1  0.7428111E-02
:FIT002: LUSE= 13 SIGMA OF V-XC FIT FOR ATOM  2  0.1629406E-01
:FIT002: LUSE= 13 SIGMA OF V-XC FIT FOR ATOM  2  0.1629406E-01
:FIT003: LUSE= 13 SIGMA OF V-XC FIT FOR ATOM  3  0.2267527E-03
:FIT003: LUSE= 13 SIGMA OF V-XC FIT FOR ATOM  3  0.2267527E-03
:DEN  : DENSITY INTEGRAL  =         -3227.00554804   (Ry)
       ELS_POTENTIAL_AT Z=0 and Z=0.5:   0.00000   0.00000
       ELS_POTENTIAL_AT Y=0 and Y=0.5:   0.00000   0.00000
:VZERO:v0,v0c,v0x  -0.78100   0.00000  -0.78100 v5,v5c,v5x  -0.78100   0.00000  -0.78100
:VZERY:v0,v0c,v0x  -0.78100   0.00000  -0.78100 v5,v5c,v5x  -0.78100   0.00000  -0.78100
:VZERX:v0,v0c,v0x  -2.09255  -0.96314  -1.12941 v5,v5c,v5x  -0.29309   0.07269  -0.36578

          ATOMIC SPHERE DEPENDENT PARAMETERS FOR ATOM  Cu1       
:e__0001: OVERALL ENERGY PARAMETER IS    0.2708
          OVERALL BASIS SET ON ATOM IS LAPW
:E1_0001: E( 1)=    0.2708
             APW+lo
:E1_0001: E( 1)=   -4.6059   E(BOTTOM)=   -4.673   E(TOP)=   -4.538  1  2   168
             LOCAL ORBITAL
:E2_0001: E( 2)=    0.3152   E(BOTTOM)=   -0.018   E(TOP)=    0.648  0  1   135
             APW+lo
:E0_0001: E( 0)=    0.2708
             APW+lo

          ATOMIC SPHERE DEPENDENT PARAMETERS FOR ATOM  Ga1       
:e__0002: OVERALL ENERGY PARAMETER IS    0.2708
          OVERALL BASIS SET ON ATOM IS LAPW
:E2_0002: E( 2)=   -0.6246   E(BOTTOM)=   -0.831   E(TOP)=   -0.418  0  1   150
             APW+lo
:E2_0002: E( 2)=    0.6708
             LOCAL ORBITAL
:E0_0002: E( 0)=    0.2708
             APW+lo
:E1_0002: E( 1)=    0.2708
             APW+lo

          ATOMIC SPHERE DEPENDENT PARAMETERS FOR ATOM  O 1       
:e__0003: OVERALL ENERGY PARAMETER IS    0.2708
          OVERALL BASIS SET ON ATOM IS LAPW
:E0_0003: E( 0)=   -1.5500   E(BOTTOM)=   -2.612   E(TOP)= -200.000  1 -1   235
             APW+lo
:E0_0003: E( 0)=    0.6708
             LOCAL ORBITAL
:E1_0003: E( 1)=    0.2708
             APW+lo

       K=   0.00000   0.00000   0.00000            1
:RKM  : MATRIX SIZE   653LOs:  36  RKM= 6.99  WEIGHT= 1.00  PGR:    
       EIGENVALUES ARE:
:EIG00001:      -4.6027053   -4.5852792   -4.5852792   -1.0569066   -0.9138668
:EIG00006:      -0.6037386   -0.6037386   -0.5966262   -0.5804726   -0.5804726
:EIG00011:      -0.1143126    0.1965675    0.2129605    0.2358625    0.2358625
:EIG00016:       0.2537647    0.2537647    0.3525549    0.3525549    0.4159332
:EIG00021:       0.4159332    0.5423534    0.8358189    0.8812287    1.3336855
:EIG00026:       1.3336855    1.3385586    1.6534924    1.7175234    1.7175234
:EIG00031:       1.7610464    1.8080359    1.8080359    1.9009100
       ********************************************************

:KPT   :      NUMBER OF K-POINTS:    32
       Insulator, EF-inconsistency corrected
:GAP  :    0.0715 Ry =     0.973 eV   (provided you have a proper k-mesh)
         Bandranges (emin - emax) and occupancy:
:BAN00011:  11   -0.131484   -0.030869  2.00000000
:BAN00012:  12   -0.072710    0.196568  2.00000000
:BAN00013:  13    0.014114    0.222564  2.00000000
:BAN00014:  14    0.087310    0.235862  2.00000000
:BAN00015:  15    0.140079    0.235862  2.00000000
:BAN00016:  16    0.211379    0.281335  2.00000000
:BAN00017:  17    0.253765    0.352317  2.00000000
:BAN00018:  18    0.340152    0.381710  2.00000000
:BAN00019:  19    0.352488    0.398546  2.00000000
:BAN00020:  20    0.384958    0.423372  2.00000000
:BAN00021:  21    0.393314    0.470813  2.00000000
:BAN00022:  22    0.542353    0.842459  0.00000000
:BAN00023:  23    0.735155    0.898517  0.00000000
:BAN00024:  24    0.876427    1.115261  0.00000000
:BAN00025:  25    1.022014    1.333686  0.00000000
:BAN00026:  26    1.185549    1.367159  0.00000000
        Energy to separate low and high energystates:   -0.18148


:NOE  : NUMBER OF ELECTRONS          =  42.000

:FER  : F E R M I - ENERGY(TETRAH.M.)=   0.4708125046
:GMA  : POTENTIAL AND CHARGE CUT-OFF  12.00 Ry**.5




:POS001: ATOM   -1 X,Y,Z = 0.00000 0.00000 0.00000  MULT= 1  ZZ= 29.000  Cu1       

       LMMAX  7
       LM=   0 0  2 0  4 0  4 3  6 0  6 3  6 6

:CHA001: TOTAL VALENCE CHARGE INSIDE SPHERE   1 =  15.3767    (RMT=  2.0000 )
:PCS001: PARTIAL CHARGES SPHERE =  1 S,P,D,F,PZ,PXY, D-Z2,D-XY,X2Y2,D-XZ,YZ 
:QTL001: 0.2783 6.1528 8.9207 0.0187 2.1133 4.0395 0.0000 1.5678 3.6312 3.7217 0.0000 0.0000
        Q-s-low E-s-low   Q-p-low E-p-low   Q-d-low E-d-low   Q-f-low E-f-low
:EPL001:  0.0209 -0.8822    6.0052 -4.5777    0.0256 -0.8718    0.0033 -0.8928
        Q-s-hi  E-s-hi    Q-p-hi  E-p-hi    Q-d-hi  E-d-hi    Q-f-hi  E-f-hi 
:EPH001:  0.2574  0.2079    0.1476  0.1635    8.8951  0.3513    0.0154  0.1502
:VZZ001: EFG INSIDE SPHERE   1 =    -6.066400      UP TO R =   2.00000




:POS002: ATOM   -2 X,Y,Z = 0.50000 0.50000 0.50000  MULT= 1  ZZ= 31.000  Ga1       

       LMMAX  7
       LM=   0 0  2 0  4 0  4 3  6 0  6 3  6 6

:CHA002: TOTAL VALENCE CHARGE INSIDE SPHERE   2 =  10.7975    (RMT=  2.0000 )
:PCS002: PARTIAL CHARGES SPHERE =  2 S,P,D,F,PZ,PXY, D-Z2,D-XY,X2Y2,D-XZ,YZ 
:QTL002: 0.4403 0.4099 9.9044 0.0341 0.1238 0.2861 0.0000 1.9622 3.9637 3.9786 0.0000 0.0000
        Q-s-low E-s-low   Q-p-low E-p-low   Q-d-low E-d-low   Q-f-low E-f-low
:EPL002:  0.0584 -0.9773    0.0555 -0.9154    9.6089 -0.5880    0.0051 -0.9118
        Q-s-hi  E-s-hi    Q-p-hi  E-p-hi    Q-d-hi  E-d-hi    Q-f-hi  E-f-hi 
:EPH002:  0.3819 -0.0501    0.3545  0.1037    0.2955  0.1471    0.0289  0.1620
:VZZ002: EFG INSIDE SPHERE   2 =     3.627499      UP TO R =   2.00000




:POS003: ATOM   -3 X,Y,Z = 0.10802 0.10802 0.10802  MULT= 2  ZZ=  8.000  O 1       

       LMMAX 12
       LM=   0 0  1 0  2 0  3 0  3 3  4 0  4 3  5 0  5 3  6 0  6 3  6 6

:CHA003: TOTAL VALENCE CHARGE INSIDE SPHERE   3 =   4.5303    (RMT=  1.4000 )
:PCS003: PARTIAL CHARGES SPHERE =  3 S,P,D,F,PZ,PXY, D-Z2,D-XY,X2Y2,D-XZ,YZ 
:QTL003: 1.3907 3.1302 0.0080 0.0011 1.0290 2.1012 0.0000 0.0016 0.0018 0.0046 0.0000 0.0000
        Q-s-low E-s-low   Q-p-low E-p-low   Q-d-low E-d-low   Q-f-low E-f-low
:EPL003:  1.3262 -0.9312    0.0424 -0.6222    0.0017 -0.7317    0.0004 -0.8613
        Q-s-hi  E-s-hi    Q-p-hi  E-p-hi    Q-d-hi  E-d-hi    Q-f-hi  E-f-hi 
:EPH003:  0.0646  0.0369    3.0877  0.1416    0.0063  0.2392    0.0007  0.2789
:VZZ003: EFG INSIDE SPHERE   3 =     1.610996      UP TO R =   1.40000

:CHA  : TOTAL VALENCE CHARGE INSIDE UNIT CELL =      42.000000

:SUM  : SUM OF EIGENVALUES =         -32.257962237


        1.ATOM      Cu1                   5 CORE STATES
:1S 001: 1S                -649.686795905 Ry
:2S 001: 2S                 -77.378491955 Ry
:2PP001: 2P*                -67.696084438 Ry
:2P 001: 2P                 -66.189766493 Ry
:3S 001: 3S                  -7.723085878 Ry

        2.ATOM      Ga1                   7 CORE STATES
:1S 002: 1S                -750.834024247 Ry
:2S 002: 2S                 -91.889153555 Ry
:2PP002: 2P*                -81.243472289 Ry
:2P 002: 2P                 -79.210805607 Ry
:3S 002: 3S                 -10.051297200 Ry
:3PP002: 3P*                 -6.612191887 Ry
:3P 002: 3P                  -6.346372307 Ry

        3.ATOM      O 1                   1 CORE STATES
       CORE-FORCE in mRy/a.u. = |F|      Fx             Fy             Fz
:FCO003:   3.ATOM      3.960584004      0.000000000      0.000000000      3.960584004

:1S 003: 1S                 -36.737250448 Ry
:CINT001 Core Integral Atom   1   11.998495
:CINT002 Core Integral Atom   2   17.993652
:CINT003 Core Integral Atom   3    1.999999

       DENSITY AT NUCLEUS
        JATOM        VALENCE       SEMI-CORE          CORE           TOTAL
:RTO001:   1        7.965471        0.000000    22630.695538    22638.661009
:RTO002:   2       12.938089        0.000000    27809.865633    27822.803722
:RTO003:   3       14.990060        0.000000      304.059442      319.049502
     
       CHARGES OF NEW CHARGE DENSITY
:NTO   : INTERSTITIAL CHARGE =     6.765167
:NTO001: CHARGE SPHERE  1    =    27.375238
:NTO002: CHARGE SPHERE  2    =    28.791179
:NTO003: CHARGE SPHERE  3    =     6.530267

:NEC01: NUCLEAR AND ELECTRONIC CHARGE     76.00000    75.99212
     
       CHARGES OF OLD CHARGE DENSITY
:OTO   : INTERSTITIAL CHARGE =     6.773050
:OTO001: CHARGE SPHERE  1    =    27.375238
:OTO002: CHARGE SPHERE  2    =    28.791179
:OTO003: CHARGE SPHERE  3    =     6.530267

:NEC02: NUCLEAR AND ELECTRONIC CHARGE     76.00000    76.00000
     
       CONVERGENCE TEST
:DTO001: DIFFERENCE IN SPHERE  1 =  0.0000001
:DTO002: DIFFERENCE IN SPHERE  2 =  0.0000000
:DTO003: DIFFERENCE IN SPHERE  3 =  0.0000000

:DIS  :  CHARGE DISTANCE       ( 0.0000001 for atom    1 spin 1)      0.0000000
:BIG check (qbig,qrms,qtot)    0.183D-07   0.217D-07   0.253D-07
 
******************************************************
* MULTISECANT MIXING VER6 RELEASE 6.0 OPTIONS        *
* Standard Mode with controls                        *
* Regularization       1.000E-06                     *
* Trust Region Control Active                        *
* Max Number of Memory Steps    8                    *
******************************************************
 
:PLANE:  INTERSTITIAL TOTAL      1.75393 DISTAN  1.275E-06 % 
:CHARG:  CLM CHARGE   /ATOM     75.92735 DISTAN  5.201E-08 % 
 
 Step History DMIX, Red, Pred, Trust, FRMS, FABS
  2  2.0000E-01  1.0000E+00  1.0000E+00  1.0000E+00
  3  2.0000E-01  1.0000E+00  1.0000E+00  1.0000E+00
  
:NORMS:  Nuclear, Spectral, Froebius, Shanno-Pua   0.1291E+01  0.1287E+01  0.1287E+01  0.7400E+00
:INFO :  Number of Memory Steps    2 Skipping    0
:INFO :  SLambda=    1.3333333  Max    1.3333333

Eigenvalues, unscaled except for SY+YY
   #     SY Real        SY Imag          SS             YY         SY+YY Real      SY+YY Imag
   1   7.821300E-10   0.000000E+00   1.812417E-10   1.999985E+00   1.535322E-05   0.000000E+00
   2   1.479999E+00   0.000000E+00   1.207088E+00   1.463369E-05   3.973317E+00   0.000000E+00
 
:INFO :  Singular value   3.973E+00 Weight  1.0000E+00 Projections   2.068E-05  4.516E-08
:INFO :  Singular value   1.535E-05 Weight  9.8331E-01 Projections  -2.073E-05 -2.928E-05
 
:DIRM :  MEMORY 2/8 RESCALE   7.25 RED 0.409 PRED 1.000 NEXT 0.862
:INFO :  Blimit    2.048E+00  1.036E+00  1.000E+00  4.143E+00
:DIRP :  |MSR1|= 7.860E-08 |PRATT|= 1.621E-07 ANGLE=  18.5 DEGREES
:DIRQ :  |MSR1|= 0.000E+00 |PRATT|= 0.000E+00 ANGLE=   0.0 DEGREES
:DIR  :  |MSR1|= 1.068E-07 |PRATT|= 2.008E-07 ANGLE=  48.2 DEGREES
:MIX  :   MSE1   REGULARIZATION: 2.00E-06  GREED: 0.200  Newton 1.00  0.53                
     
       CHARGES OF MIXED CHARGE DENSITY
:CTO   : INTERSTITIAL CHARGE =     6.773050
:CTO001: CHARGE SPHERE  1    =    27.375238
:CTO002: CHARGE SPHERE  2    =    28.791179
:CTO003: CHARGE SPHERE  3    =     6.530267

:NEC03: NUCLEAR AND ELECTRONIC CHARGE     76.00000    76.00000

PW CHANGE     H    K    L       Current     Change     Residue
:PTO001:      0    0    0  6.29459774E-02  1.853E-10  3.985E-10
:PTO002:     -1   -1   -1 -2.41253437E-02  1.770E-10  5.970E-10
:PTO003:     -2   -2   -2 -6.85515599E-03  1.511E-10  1.391E-10
:PTO004:     -1    0    0  1.03380025E-01  2.178E-10  7.679E-10
:PTO005:     -1   -1    0  6.57208658E-02  3.406E-10  9.571E-10
:PTO006:     -2   -1   -1 -6.29129817E-02 -4.323E-12  9.471E-11
:PTO007:     -2   -2   -1 -8.13004371E-02 -1.752E-10 -4.330E-10
:PTO008:     -3   -3   -3  2.83519937E-02  1.888E-10  3.981E-10
:PTO009:     -3   -2   -2  9.18865101E-03  3.025E-10  2.589E-10
:PTO010:     -3   -3   -2  4.51921204E-02  4.593E-10  6.933E-10
:PTO011:     -1    0    1  4.16518297E-02  5.386E-10  1.076E-09
:PTO012:     -2   -1    0 -2.98401100E-02  5.101E-11  2.278E-10

:ENE  : ********** TOTAL ENERGY IN Ry =        -7499.42948440

       TOTAL FORCE IN mRy/a.u. = |F|     Fx             Fy             Fz     with/without FOR in case.in2
:FOR001:   1.ATOM          0.000          0.000          0.000          0.000 partial forces
:FOR002:   2.ATOM          0.000          0.000          0.000          0.000 partial forces
:FOR003:   3.ATOM          7.511          0.000          0.000         -7.511 partial forces
       TOTAL FORCE WITH RESPECT TO GLOBAL CARTESIAN COORDINATES:
:FCA001:   1.ATOM                         0.000          0.000          0.000 partial forces
:FCA002:   2.ATOM                         0.000          0.000          0.000 partial forces
:FCA003:   3.ATOM                         0.000          0.000         -7.511 partial forces
       TOTAL FORCE WITH RESPECT TO THE GLOBAL COORDINATE SYSTEM:
:FGL001:   1.ATOM                 0.000000000     0.000000000     0.000000000 partial forces
:FGL002:   2.ATOM                 0.000000000     0.000000000     0.000000000 partial forces
:FGL003:   3.ATOM                -7.511188977    -7.511188977    -7.511188977 partial forces


            ---------
:ITE025: 25. ITERATION
            ---------

:NATO :    3 INDEPENDENT AND    4 TOTAL ATOMS IN UNITCELL
       SUBSTANCE: CuGaO2 KoehlerB86                                           

       LATTICE                      = R   
:POT  : POTENTIAL OPTION EX_PBE EC_PBE VX_PBE VC_PBE
:LAT  : LATTICE CONSTANTS=  5.63135  5.63135 32.31415
:VOL  : UNIT CELL VOLUME =     295.82013
       MODE OF CALCULATION IS       = RELA
       NON-SPINPOLARIZED CALCULATION
:IFFT  : FFT-parameters:   90   90   90 Factor: 2.00
       ATOMNUMBER=  1 Cu1        VCOUL-ZERO =  0.33671E+00
:EFG001:                        EFG         =    -5.75560   *10**21  V / m**2
                               V20  TOT/SRF=    -4.98450     0.18221
                               V22  TOT/SRF=     0.00000     0.00000
                               V22M TOT/SRF=     0.00000     0.00000
                               V21  TOT/SRF=     0.00000     0.00000
                               V21M TOT/SRF=     0.00000     0.00000

              2.87780    0.00000    0.00000        2.87780    0.00000    0.00000
              0.00000    2.87780    0.00000        0.00000    2.87780    0.00000
              0.00000    0.00000   -5.75560        0.00000    0.00000   -5.75560

         MAIN DIRECTIONS OF THE EFG   1.0000  0.0000  0.0000
                                      0.0000  1.0000  0.0000
                                      0.0000  0.0000  1.0000
:ANG001:  ANGLE WITH OLD X-AXIS =         0.0

:ETA001:                         ASYMM. ETA =     0.00000


       ATOMNUMBER=  2 Ga1        VCOUL-ZERO =  0.97972E-01
:EFG002:                        EFG         =     3.51924   *10**21  V / m**2
                               V20  TOT/SRF=     3.04775    -0.04559
                               V22  TOT/SRF=     0.00000     0.00000
                               V22M TOT/SRF=     0.00000     0.00000
                               V21  TOT/SRF=     0.00000     0.00000
                               V21M TOT/SRF=     0.00000     0.00000

             -1.75962    0.00000    0.00000       -1.75962    0.00000    0.00000
              0.00000   -1.75962    0.00000        0.00000   -1.75962    0.00000
              0.00000    0.00000    3.51924        0.00000    0.00000    3.51924

         MAIN DIRECTIONS OF THE EFG   1.0000  0.0000  0.0000
                                      0.0000  1.0000  0.0000
                                      0.0000  0.0000  1.0000
:ANG002:  ANGLE WITH OLD X-AXIS =         0.0

:ETA002:                         ASYMM. ETA =     0.00000


       ATOMNUMBER=  3 O 1        VCOUL-ZERO =  0.16616E+00
:EFG003:                        EFG         =     2.00288   *10**21  V / m**2
                               V20  TOT/SRF=     1.73454     0.31155
                               V22  TOT/SRF=     0.00000     0.00000
                               V22M TOT/SRF=     0.00000     0.00000
                               V21  TOT/SRF=     0.00000     0.00000
                               V21M TOT/SRF=     0.00000     0.00000

             -1.00144    0.00000    0.00000       -1.00144    0.00000    0.00000
              0.00000   -1.00144    0.00000        0.00000   -1.00144    0.00000
              0.00000    0.00000    2.00288        0.00000    0.00000    2.00288

         MAIN DIRECTIONS OF THE EFG   1.0000  0.0000  0.0000
                                      0.0000  1.0000  0.0000
                                      0.0000  0.0000  1.0000
:ANG003:  ANGLE WITH OLD X-AXIS =         0.0

:ETA003:                         ASYMM. ETA =     0.00000


     HELLMANN-FEYNMAN-FORCE IN mRy/a.u. = |F|  Fx       Fy             Fz
:FHF001:   1.ATOM      0.000000000      0.000000000      0.000000000      0.000000000

     HELLMANN-FEYNMAN-FORCE IN mRy/a.u. = |F|  Fx       Fy             Fz
:FHF002:   2.ATOM      0.000000000      0.000000000      0.000000000      0.000000000

     HELLMANN-FEYNMAN-FORCE IN mRy/a.u. = |F|  Fx       Fy             Fz
:FHF003:   3.ATOM     11.471742424      0.000000000      0.000000000    -11.471742424

:FIT001: LUSE= 13 SIGMA OF V-XC FIT FOR ATOM  1  0.7428110E-02
:FIT001: LUSE= 13 SIGMA OF V-XC FIT FOR ATOM  1  0.7428110E-02
:FIT002: LUSE= 13 SIGMA OF V-XC FIT FOR ATOM  2  0.1629406E-01
:FIT002: LUSE= 13 SIGMA OF V-XC FIT FOR ATOM  2  0.1629406E-01
:FIT003: LUSE= 13 SIGMA OF V-XC FIT FOR ATOM  3  0.2267527E-03
:FIT003: LUSE= 13 SIGMA OF V-XC FIT FOR ATOM  3  0.2267527E-03
:DEN  : DENSITY INTEGRAL  =         -3227.00554803   (Ry)
       ELS_POTENTIAL_AT Z=0 and Z=0.5:   0.00000   0.00000
       ELS_POTENTIAL_AT Y=0 and Y=0.5:   0.00000   0.00000
:VZERO:v0,v0c,v0x  -0.78100   0.00000  -0.78100 v5,v5c,v5x  -0.78100   0.00000  -0.78100
:VZERY:v0,v0c,v0x  -0.78100   0.00000  -0.78100 v5,v5c,v5x  -0.78100   0.00000  -0.78100
:VZERX:v0,v0c,v0x  -2.09255  -0.96314  -1.12941 v5,v5c,v5x  -0.29309   0.07269  -0.36578

          ATOMIC SPHERE DEPENDENT PARAMETERS FOR ATOM  Cu1       
:e__0001: OVERALL ENERGY PARAMETER IS    0.2708
          OVERALL BASIS SET ON ATOM IS LAPW
:E1_0001: E( 1)=    0.2708
             APW+lo
:E1_0001: E( 1)=   -4.6059   E(BOTTOM)=   -4.673   E(TOP)=   -4.538  1  2   168
             LOCAL ORBITAL
:E2_0001: E( 2)=    0.3152   E(BOTTOM)=   -0.018   E(TOP)=    0.648  0  1   135
             APW+lo
:E0_0001: E( 0)=    0.2708
             APW+lo

          ATOMIC SPHERE DEPENDENT PARAMETERS FOR ATOM  Ga1       
:e__0002: OVERALL ENERGY PARAMETER IS    0.2708
          OVERALL BASIS SET ON ATOM IS LAPW
:E2_0002: E( 2)=   -0.6246   E(BOTTOM)=   -0.831   E(TOP)=   -0.418  0  1   151
             APW+lo
:E2_0002: E( 2)=    0.6708
             LOCAL ORBITAL
:E0_0002: E( 0)=    0.2708
             APW+lo
:E1_0002: E( 1)=    0.2708
             APW+lo

          ATOMIC SPHERE DEPENDENT PARAMETERS FOR ATOM  O 1       
:e__0003: OVERALL ENERGY PARAMETER IS    0.2708
          OVERALL BASIS SET ON ATOM IS LAPW
:E0_0003: E( 0)=   -1.5500   E(BOTTOM)=   -2.612   E(TOP)= -200.000  1 -1   234
             APW+lo
:E0_0003: E( 0)=    0.6708
             LOCAL ORBITAL
:E1_0003: E( 1)=    0.2708
             APW+lo

       K=   0.00000   0.00000   0.00000            1
:RKM  : MATRIX SIZE   653LOs:  36  RKM= 6.99  WEIGHT= 1.00  PGR:    
       EIGENVALUES ARE:
:EIG00001:      -4.6027053   -4.5852792   -4.5852792   -1.0569066   -0.9138668
:EIG00006:      -0.6037386   -0.6037386   -0.5966262   -0.5804726   -0.5804726
:EIG00011:      -0.1143126    0.1965675    0.2129605    0.2358625    0.2358625
:EIG00016:       0.2537647    0.2537647    0.3525549    0.3525549    0.4159332
:EIG00021:       0.4159332    0.5423534    0.8358189    0.8812287    1.3336855
:EIG00026:       1.3336855    1.3385586    1.6534924    1.7175234    1.7175234
:EIG00031:       1.7610464    1.8080359    1.8080359    1.9009100
       ********************************************************

:KPT   :      NUMBER OF K-POINTS:    32
       Insulator, EF-inconsistency corrected
:GAP  :    0.0715 Ry =     0.973 eV   (provided you have a proper k-mesh)
         Bandranges (emin - emax) and occupancy:
:BAN00011:  11   -0.131484   -0.030869  2.00000000
:BAN00012:  12   -0.072710    0.196568  2.00000000
:BAN00013:  13    0.014114    0.222564  2.00000000
:BAN00014:  14    0.087310    0.235862  2.00000000
:BAN00015:  15    0.140079    0.235862  2.00000000
:BAN00016:  16    0.211379    0.281335  2.00000000
:BAN00017:  17    0.253765    0.352317  2.00000000
:BAN00018:  18    0.340152    0.381710  2.00000000
:BAN00019:  19    0.352488    0.398546  2.00000000
:BAN00020:  20    0.384958    0.423372  2.00000000
:BAN00021:  21    0.393314    0.470813  2.00000000
:BAN00022:  22    0.542353    0.842459  0.00000000
:BAN00023:  23    0.735155    0.898517  0.00000000
:BAN00024:  24    0.876427    1.115261  0.00000000
:BAN00025:  25    1.022014    1.333686  0.00000000
:BAN00026:  26    1.185549    1.367159  0.00000000
        Energy to separate low and high energystates:   -0.18148


:NOE  : NUMBER OF ELECTRONS          =  42.000

:FER  : F E R M I - ENERGY(TETRAH.M.)=   0.4708125057
:GMA  : POTENTIAL AND CHARGE CUT-OFF  12.00 Ry**.5




:POS001: ATOM   -1 X,Y,Z = 0.00000 0.00000 0.00000  MULT= 1  ZZ= 29.000  Cu1       

       LMMAX  7
       LM=   0 0  2 0  4 0  4 3  6 0  6 3  6 6

:CHA001: TOTAL VALENCE CHARGE INSIDE SPHERE   1 =  15.3767    (RMT=  2.0000 )
:PCS001: PARTIAL CHARGES SPHERE =  1 S,P,D,F,PZ,PXY, D-Z2,D-XY,X2Y2,D-XZ,YZ 
:QTL001: 0.2783 6.1528 8.9207 0.0187 2.1133 4.0395 0.0000 1.5678 3.6312 3.7217 0.0000 0.0000
        Q-s-low E-s-low   Q-p-low E-p-low   Q-d-low E-d-low   Q-f-low E-f-low
:EPL001:  0.0209 -0.8822    6.0052 -4.5777    0.0256 -0.8718    0.0033 -0.8928
        Q-s-hi  E-s-hi    Q-p-hi  E-p-hi    Q-d-hi  E-d-hi    Q-f-hi  E-f-hi 
:EPH001:  0.2574  0.2079    0.1476  0.1635    8.8951  0.3513    0.0154  0.1502
:VZZ001: EFG INSIDE SPHERE   1 =    -6.066400      UP TO R =   2.00000




:POS002: ATOM   -2 X,Y,Z = 0.50000 0.50000 0.50000  MULT= 1  ZZ= 31.000  Ga1       

       LMMAX  7
       LM=   0 0  2 0  4 0  4 3  6 0  6 3  6 6

:CHA002: TOTAL VALENCE CHARGE INSIDE SPHERE   2 =  10.7975    (RMT=  2.0000 )
:PCS002: PARTIAL CHARGES SPHERE =  2 S,P,D,F,PZ,PXY, D-Z2,D-XY,X2Y2,D-XZ,YZ 
:QTL002: 0.4403 0.4099 9.9044 0.0341 0.1238 0.2861 0.0000 1.9622 3.9637 3.9786 0.0000 0.0000
        Q-s-low E-s-low   Q-p-low E-p-low   Q-d-low E-d-low   Q-f-low E-f-low
:EPL002:  0.0584 -0.9773    0.0555 -0.9154    9.6089 -0.5880    0.0051 -0.9118
        Q-s-hi  E-s-hi    Q-p-hi  E-p-hi    Q-d-hi  E-d-hi    Q-f-hi  E-f-hi 
:EPH002:  0.3819 -0.0501    0.3545  0.1037    0.2955  0.1471    0.0289  0.1620
:VZZ002: EFG INSIDE SPHERE   2 =     3.627499      UP TO R =   2.00000




:POS003: ATOM   -3 X,Y,Z = 0.10802 0.10802 0.10802  MULT= 2  ZZ=  8.000  O 1       

       LMMAX 12
       LM=   0 0  1 0  2 0  3 0  3 3  4 0  4 3  5 0  5 3  6 0  6 3  6 6

:CHA003: TOTAL VALENCE CHARGE INSIDE SPHERE   3 =   4.5303    (RMT=  1.4000 )
:PCS003: PARTIAL CHARGES SPHERE =  3 S,P,D,F,PZ,PXY, D-Z2,D-XY,X2Y2,D-XZ,YZ 
:QTL003: 1.3907 3.1302 0.0080 0.0011 1.0290 2.1012 0.0000 0.0016 0.0018 0.0046 0.0000 0.0000
        Q-s-low E-s-low   Q-p-low E-p-low   Q-d-low E-d-low   Q-f-low E-f-low
:EPL003:  1.3262 -0.9312    0.0424 -0.6222    0.0017 -0.7317    0.0004 -0.8613
        Q-s-hi  E-s-hi    Q-p-hi  E-p-hi    Q-d-hi  E-d-hi    Q-f-hi  E-f-hi 
:EPH003:  0.0646  0.0369    3.0877  0.1416    0.0063  0.2392    0.0007  0.2789
:VZZ003: EFG INSIDE SPHERE   3 =     1.610995      UP TO R =   1.40000

:CHA  : TOTAL VALENCE CHARGE INSIDE UNIT CELL =      42.000000

:SUM  : SUM OF EIGENVALUES =         -32.257962286


        1.ATOM      Cu1                   5 CORE STATES
:1S 001: 1S                -649.686795894 Ry
:2S 001: 2S                 -77.378491945 Ry
:2PP001: 2P*                -67.696084427 Ry
:2P 001: 2P                 -66.189766483 Ry
:3S 001: 3S                  -7.723085877 Ry

        2.ATOM      Ga1                   7 CORE STATES
:1S 002: 1S                -750.834024247 Ry
:2S 002: 2S                 -91.889153559 Ry
:2PP002: 2P*                -81.243472292 Ry
:2P 002: 2P                 -79.210805611 Ry
:3S 002: 3S                 -10.051297206 Ry
:3PP002: 3P*                 -6.612191893 Ry
:3P 002: 3P                  -6.346372313 Ry

        3.ATOM      O 1                   1 CORE STATES
       CORE-FORCE in mRy/a.u. = |F|      Fx             Fy             Fz
:FCO003:   3.ATOM      3.960558883      0.000000000      0.000000000      3.960558883

:1S 003: 1S                 -36.737250446 Ry
:CINT001 Core Integral Atom   1   11.998495
:CINT002 Core Integral Atom   2   17.993652
:CINT003 Core Integral Atom   3    1.999999

       DENSITY AT NUCLEUS
        JATOM        VALENCE       SEMI-CORE          CORE           TOTAL
:RTO001:   1        7.965471        0.000000    22630.695538    22638.661009
:RTO002:   2       12.938089        0.000000    27809.865635    27822.803724
:RTO003:   3       14.990060        0.000000      304.059442      319.049502
     
       CHARGES OF NEW CHARGE DENSITY
:NTO   : INTERSTITIAL CHARGE =     6.765167
:NTO001: CHARGE SPHERE  1    =    27.375238
:NTO002: CHARGE SPHERE  2    =    28.791179
:NTO003: CHARGE SPHERE  3    =     6.530267

:NEC01: NUCLEAR AND ELECTRONIC CHARGE     76.00000    75.99212
     
       CHARGES OF OLD CHARGE DENSITY
:OTO   : INTERSTITIAL CHARGE =     6.773050
:OTO001: CHARGE SPHERE  1    =    27.375238
:OTO002: CHARGE SPHERE  2    =    28.791179
:OTO003: CHARGE SPHERE  3    =     6.530267

:NEC02: NUCLEAR AND ELECTRONIC CHARGE     76.00000    76.00000
     
       CONVERGENCE TEST
:DTO001: DIFFERENCE IN SPHERE  1 =  0.0000001
:DTO002: DIFFERENCE IN SPHERE  2 =  0.0000000
:DTO003: DIFFERENCE IN SPHERE  3 =  0.0000000

:DIS  :  CHARGE DISTANCE       ( 0.0000001 for atom    1 spin 1)      0.0000000
:BIG check (qbig,qrms,qtot)    0.288D-07   0.311D-07   0.284D-07
 
******************************************************
* MULTISECANT MIXING VER6 RELEASE 6.0 OPTIONS        *
* Standard Mode with controls                        *
* Regularization       1.000E-06                     *
* Trust Region Control Active                        *
* Max Number of Memory Steps    8                    *
******************************************************
 
:PLANE:  INTERSTITIAL TOTAL      1.75393 DISTAN  7.800E-07 % 
:CHARG:  CLM CHARGE   /ATOM     75.92735 DISTAN  6.301E-08 % 
 
 Step History DMIX, Red, Pred, Trust, FRMS, FABS
  2  2.0000E-01  1.0000E+00  1.0000E+00  1.0000E+00
  3  2.0000E-01  4.0898E-01  1.0000E+00  1.0000E+00
  4  2.0000E-01  1.0000E+00  8.6158E-01  4.1434E+00
  
:NORMS:  Nuclear, Spectral, Froebius, Shanno-Pua   0.1234E+01  0.1156E+01  0.1170E+01  0.8284E+00
:INFO :  Number of Memory Steps    3 Skipping    0
:INFO :  SLambda=    1.3333333  Max    1.3333333

Eigenvalues, unscaled except for SY+YY
   #     SY Real        SY Imag          SS             YY         SY+YY Real      SY+YY Imag
   1   2.395284E+00   0.000000E+00   2.159807E+00   2.886675E+00   6.078654E+00   0.000000E+00
   2   5.499233E-10   0.000000E+00   1.154382E-10   9.479773E-06   9.974626E-06   0.000000E+00
   3   5.787619E-02   0.000000E+00   3.315245E-02   1.133153E-01   1.922163E-01   0.000000E+00
 
:INFO :  Singular value   6.079E+00 Weight  1.0000E+00 Projections   2.390E-05 -8.064E-09
:INFO :  Singular value   1.922E-01 Weight  1.0000E+00 Projections  -2.509E-05 -3.741E-07
:INFO :  Singular value   9.975E-06 Weight  9.2272E-01 Projections   1.356E-06 -3.467E-05
 
:DIRM :  MEMORY 3/8 RESCALE   7.96 RED 0.842 PRED 0.862 NEXT 0.407
:INFO :  Blimit    2.903E+00  1.153E+00  1.000E+00  4.613E+00
:DIRP :  |MSR1|= 7.447E-08 |PRATT|= 1.089E-07 ANGLE=  12.5 DEGREES
:DIRQ :  |MSR1|= 0.000E+00 |PRATT|= 0.000E+00 ANGLE=   0.0 DEGREES
:DIR  :  |MSR1|= 8.818E-08 |PRATT|= 1.802E-07 ANGLE=  52.4 DEGREES
:MIX  :   MSE1   REGULARIZATION: 2.89E-06  GREED: 0.200  Newton 1.00  0.49                
     
       CHARGES OF MIXED CHARGE DENSITY
:CTO   : INTERSTITIAL CHARGE =     6.773050
:CTO001: CHARGE SPHERE  1    =    27.375238
:CTO002: CHARGE SPHERE  2    =    28.791179
:CTO003: CHARGE SPHERE  3    =     6.530267

:NEC03: NUCLEAR AND ELECTRONIC CHARGE     76.00000    76.00000

PW CHANGE     H    K    L       Current     Change     Residue
:PTO001:      0    0    0  6.29459775E-02  1.605E-10  2.406E-10
:PTO002:     -1   -1   -1 -2.41253434E-02  2.363E-10  4.042E-10
:PTO003:     -2   -2   -2 -6.85515593E-03  5.525E-11  2.226E-11
:PTO004:     -1    0    0  1.03380026E-01  3.324E-10  6.235E-10
:PTO005:     -1   -1    0  6.57208662E-02  4.105E-10  6.891E-10
:PTO006:     -2   -1   -1 -6.29129816E-02  4.930E-11  1.293E-10
:PTO007:     -2   -2   -1 -8.13004373E-02 -1.916E-10 -2.620E-10
:PTO008:     -3   -3   -3  2.83519939E-02  1.691E-10  2.193E-10
:PTO009:     -3   -2   -2  9.18865108E-03  7.147E-11 -4.004E-11
:PTO010:     -3   -3   -2  4.51921206E-02  2.689E-10  2.529E-10
:PTO011:     -1    0    1  4.16518301E-02  4.251E-10  5.763E-10
:PTO012:     -2   -1    0 -2.98401099E-02  1.288E-10  2.627E-10

:ENE  : ********** TOTAL ENERGY IN Ry =        -7499.42948441

       TOTAL FORCE IN mRy/a.u. = |F|     Fx             Fy             Fz     with/without FOR in case.in2
:FOR001:   1.ATOM          0.000          0.000          0.000          0.000 partial forces
:FOR002:   2.ATOM          0.000          0.000          0.000          0.000 partial forces
:FOR003:   3.ATOM          7.511          0.000          0.000         -7.511 partial forces
       TOTAL FORCE WITH RESPECT TO GLOBAL CARTESIAN COORDINATES:
:FCA001:   1.ATOM                         0.000          0.000          0.000 partial forces
:FCA002:   2.ATOM                         0.000          0.000          0.000 partial forces
:FCA003:   3.ATOM                         0.000          0.000         -7.511 partial forces
       TOTAL FORCE WITH RESPECT TO THE GLOBAL COORDINATE SYSTEM:
:FGL001:   1.ATOM                 0.000000000     0.000000000     0.000000000 partial forces
:FGL002:   2.ATOM                 0.000000000     0.000000000     0.000000000 partial forces
:FGL003:   3.ATOM                -7.511183541    -7.511183541    -7.511183541 partial forces


            ---------
:ITE026: 26. ITERATION
            ---------

:NATO :    3 INDEPENDENT AND    4 TOTAL ATOMS IN UNITCELL
       SUBSTANCE: CuGaO2 KoehlerB86                                           

       LATTICE                      = R   
:POT  : POTENTIAL OPTION EX_PBE EC_PBE VX_PBE VC_PBE
:LAT  : LATTICE CONSTANTS=  5.63135  5.63135 32.31415
:VOL  : UNIT CELL VOLUME =     295.82013
       MODE OF CALCULATION IS       = RELA
       NON-SPINPOLARIZED CALCULATION
:IFFT  : FFT-parameters:   90   90   90 Factor: 2.00
       ATOMNUMBER=  1 Cu1        VCOUL-ZERO =  0.33671E+00
:EFG001:                        EFG         =    -5.75560   *10**21  V / m**2
                               V20  TOT/SRF=    -4.98450     0.18221
                               V22  TOT/SRF=     0.00000     0.00000
                               V22M TOT/SRF=     0.00000     0.00000
                               V21  TOT/SRF=     0.00000     0.00000
                               V21M TOT/SRF=     0.00000     0.00000

              2.87780    0.00000    0.00000        2.87780    0.00000    0.00000
              0.00000    2.87780    0.00000        0.00000    2.87780    0.00000
              0.00000    0.00000   -5.75560        0.00000    0.00000   -5.75560

         MAIN DIRECTIONS OF THE EFG   1.0000  0.0000  0.0000
                                      0.0000  1.0000  0.0000
                                      0.0000  0.0000  1.0000
:ANG001:  ANGLE WITH OLD X-AXIS =         0.0

:ETA001:                         ASYMM. ETA =     0.00000


       ATOMNUMBER=  2 Ga1        VCOUL-ZERO =  0.97972E-01
:EFG002:                        EFG         =     3.51924   *10**21  V / m**2
                               V20  TOT/SRF=     3.04775    -0.04559
                               V22  TOT/SRF=     0.00000     0.00000
                               V22M TOT/SRF=     0.00000     0.00000
                               V21  TOT/SRF=     0.00000     0.00000
                               V21M TOT/SRF=     0.00000     0.00000

             -1.75962    0.00000    0.00000       -1.75962    0.00000    0.00000
              0.00000   -1.75962    0.00000        0.00000   -1.75962    0.00000
              0.00000    0.00000    3.51924        0.00000    0.00000    3.51924

         MAIN DIRECTIONS OF THE EFG   1.0000  0.0000  0.0000
                                      0.0000  1.0000  0.0000
                                      0.0000  0.0000  1.0000
:ANG002:  ANGLE WITH OLD X-AXIS =         0.0

:ETA002:                         ASYMM. ETA =     0.00000


       ATOMNUMBER=  3 O 1        VCOUL-ZERO =  0.16616E+00
:EFG003:                        EFG         =     2.00288   *10**21  V / m**2
                               V20  TOT/SRF=     1.73454     0.31155
                               V22  TOT/SRF=     0.00000     0.00000
                               V22M TOT/SRF=     0.00000     0.00000
                               V21  TOT/SRF=     0.00000     0.00000
                               V21M TOT/SRF=     0.00000     0.00000

             -1.00144    0.00000    0.00000       -1.00144    0.00000    0.00000
              0.00000   -1.00144    0.00000        0.00000   -1.00144    0.00000
              0.00000    0.00000    2.00288        0.00000    0.00000    2.00288

         MAIN DIRECTIONS OF THE EFG   1.0000  0.0000  0.0000
                                      0.0000  1.0000  0.0000
                                      0.0000  0.0000  1.0000
:ANG003:  ANGLE WITH OLD X-AXIS =         0.0

:ETA003:                         ASYMM. ETA =     0.00000


     HELLMANN-FEYNMAN-FORCE IN mRy/a.u. = |F|  Fx       Fy             Fz
:FHF001:   1.ATOM      0.000000000      0.000000000      0.000000000      0.000000000

     HELLMANN-FEYNMAN-FORCE IN mRy/a.u. = |F|  Fx       Fy             Fz
:FHF002:   2.ATOM      0.000000000      0.000000000      0.000000000      0.000000000

     HELLMANN-FEYNMAN-FORCE IN mRy/a.u. = |F|  Fx       Fy             Fz
:FHF003:   3.ATOM     11.471828218      0.000000000      0.000000000    -11.471828218

:FIT001: LUSE= 13 SIGMA OF V-XC FIT FOR ATOM  1  0.7428110E-02
:FIT001: LUSE= 13 SIGMA OF V-XC FIT FOR ATOM  1  0.7428110E-02
:FIT002: LUSE= 13 SIGMA OF V-XC FIT FOR ATOM  2  0.1629406E-01
:FIT002: LUSE= 13 SIGMA OF V-XC FIT FOR ATOM  2  0.1629406E-01
:FIT003: LUSE= 13 SIGMA OF V-XC FIT FOR ATOM  3  0.2267528E-03
:FIT003: LUSE= 13 SIGMA OF V-XC FIT FOR ATOM  3  0.2267528E-03
:DEN  : DENSITY INTEGRAL  =         -3227.00554774   (Ry)
       ELS_POTENTIAL_AT Z=0 and Z=0.5:   0.00000   0.00000
       ELS_POTENTIAL_AT Y=0 and Y=0.5:   0.00000   0.00000
:VZERO:v0,v0c,v0x  -0.78100   0.00000  -0.78100 v5,v5c,v5x  -0.78100   0.00000  -0.78100
:VZERY:v0,v0c,v0x  -0.78100   0.00000  -0.78100 v5,v5c,v5x  -0.78100   0.00000  -0.78100
:VZERX:v0,v0c,v0x  -2.09255  -0.96314  -1.12941 v5,v5c,v5x  -0.29309   0.07269  -0.36578

          ATOMIC SPHERE DEPENDENT PARAMETERS FOR ATOM  Cu1       
:e__0001: OVERALL ENERGY PARAMETER IS    0.2708
          OVERALL BASIS SET ON ATOM IS LAPW
:E1_0001: E( 1)=    0.2708
             APW+lo
:E1_0001: E( 1)=   -4.6059   E(BOTTOM)=   -4.673   E(TOP)=   -4.538  1  2   168
             LOCAL ORBITAL
:E2_0001: E( 2)=    0.3152   E(BOTTOM)=   -0.018   E(TOP)=    0.648  0  1   135
             APW+lo
:E0_0001: E( 0)=    0.2708
             APW+lo

          ATOMIC SPHERE DEPENDENT PARAMETERS FOR ATOM  Ga1       
:e__0002: OVERALL ENERGY PARAMETER IS    0.2708
          OVERALL BASIS SET ON ATOM IS LAPW
:E2_0002: E( 2)=   -0.6246   E(BOTTOM)=   -0.831   E(TOP)=   -0.418  0  1   150
             APW+lo
:E2_0002: E( 2)=    0.6708
             LOCAL ORBITAL
:E0_0002: E( 0)=    0.2708
             APW+lo
:E1_0002: E( 1)=    0.2708
             APW+lo

          ATOMIC SPHERE DEPENDENT PARAMETERS FOR ATOM  O 1       
:e__0003: OVERALL ENERGY PARAMETER IS    0.2708
          OVERALL BASIS SET ON ATOM IS LAPW
:E0_0003: E( 0)=   -1.5500   E(BOTTOM)=   -2.612   E(TOP)= -200.000  1 -1   234
             APW+lo
:E0_0003: E( 0)=    0.6708
             LOCAL ORBITAL
:E1_0003: E( 1)=    0.2708
             APW+lo

       K=   0.00000   0.00000   0.00000            1
:RKM  : MATRIX SIZE   653LOs:  36  RKM= 6.99  WEIGHT= 1.00  PGR:    
       EIGENVALUES ARE:
:EIG00001:      -4.6027053   -4.5852792   -4.5852792   -1.0569066   -0.9138668
:EIG00006:      -0.6037386   -0.6037386   -0.5966262   -0.5804726   -0.5804726
:EIG00011:      -0.1143126    0.1965675    0.2129605    0.2358625    0.2358625
:EIG00016:       0.2537647    0.2537647    0.3525549    0.3525549    0.4159332
:EIG00021:       0.4159332    0.5423534    0.8358189    0.8812287    1.3336855
:EIG00026:       1.3336855    1.3385586    1.6534924    1.7175234    1.7175234
:EIG00031:       1.7610464    1.8080359    1.8080359    1.9009100
       ********************************************************

:KPT   :      NUMBER OF K-POINTS:    32
       Insulator, EF-inconsistency corrected
:GAP  :    0.0715 Ry =     0.973 eV   (provided you have a proper k-mesh)
         Bandranges (emin - emax) and occupancy:
:BAN00011:  11   -0.131484   -0.030869  2.00000000
:BAN00012:  12   -0.072710    0.196568  2.00000000
:BAN00013:  13    0.014114    0.222564  2.00000000
:BAN00014:  14    0.087310    0.235862  2.00000000
:BAN00015:  15    0.140079    0.235862  2.00000000
:BAN00016:  16    0.211379    0.281335  2.00000000
:BAN00017:  17    0.253765    0.352317  2.00000000
:BAN00018:  18    0.340152    0.381710  2.00000000
:BAN00019:  19    0.352488    0.398546  2.00000000
:BAN00020:  20    0.384958    0.423372  2.00000000
:BAN00021:  21    0.393314    0.470813  2.00000000
:BAN00022:  22    0.542353    0.842459  0.00000000
:BAN00023:  23    0.735155    0.898517  0.00000000
:BAN00024:  24    0.876427    1.115261  0.00000000
:BAN00025:  25    1.022014    1.333686  0.00000000
:BAN00026:  26    1.185549    1.367159  0.00000000
        Energy to separate low and high energystates:   -0.18148


:NOE  : NUMBER OF ELECTRONS          =  42.000

:FER  : F E R M I - ENERGY(TETRAH.M.)=   0.4708125083
:GMA  : POTENTIAL AND CHARGE CUT-OFF  12.00 Ry**.5




:POS001: ATOM   -1 X,Y,Z = 0.00000 0.00000 0.00000  MULT= 1  ZZ= 29.000  Cu1       

       LMMAX  7
       LM=   0 0  2 0  4 0  4 3  6 0  6 3  6 6

:CHA001: TOTAL VALENCE CHARGE INSIDE SPHERE   1 =  15.3767    (RMT=  2.0000 )
:PCS001: PARTIAL CHARGES SPHERE =  1 S,P,D,F,PZ,PXY, D-Z2,D-XY,X2Y2,D-XZ,YZ 
:QTL001: 0.2783 6.1528 8.9207 0.0187 2.1133 4.0395 0.0000 1.5678 3.6312 3.7217 0.0000 0.0000
        Q-s-low E-s-low   Q-p-low E-p-low   Q-d-low E-d-low   Q-f-low E-f-low
:EPL001:  0.0209 -0.8822    6.0052 -4.5777    0.0256 -0.8718    0.0033 -0.8928
        Q-s-hi  E-s-hi    Q-p-hi  E-p-hi    Q-d-hi  E-d-hi    Q-f-hi  E-f-hi 
:EPH001:  0.2574  0.2079    0.1476  0.1635    8.8951  0.3513    0.0154  0.1502
:VZZ001: EFG INSIDE SPHERE   1 =    -6.066400      UP TO R =   2.00000




:POS002: ATOM   -2 X,Y,Z = 0.50000 0.50000 0.50000  MULT= 1  ZZ= 31.000  Ga1       

       LMMAX  7
       LM=   0 0  2 0  4 0  4 3  6 0  6 3  6 6

:CHA002: TOTAL VALENCE CHARGE INSIDE SPHERE   2 =  10.7975    (RMT=  2.0000 )
:PCS002: PARTIAL CHARGES SPHERE =  2 S,P,D,F,PZ,PXY, D-Z2,D-XY,X2Y2,D-XZ,YZ 
:QTL002: 0.4403 0.4099 9.9044 0.0341 0.1238 0.2861 0.0000 1.9622 3.9637 3.9786 0.0000 0.0000
        Q-s-low E-s-low   Q-p-low E-p-low   Q-d-low E-d-low   Q-f-low E-f-low
:EPL002:  0.0584 -0.9773    0.0555 -0.9154    9.6089 -0.5880    0.0051 -0.9118
        Q-s-hi  E-s-hi    Q-p-hi  E-p-hi    Q-d-hi  E-d-hi    Q-f-hi  E-f-hi 
:EPH002:  0.3819 -0.0501    0.3545  0.1037    0.2955  0.1471    0.0289  0.1620
:VZZ002: EFG INSIDE SPHERE   2 =     3.627499      UP TO R =   2.00000




:POS003: ATOM   -3 X,Y,Z = 0.10802 0.10802 0.10802  MULT= 2  ZZ=  8.000  O 1       

       LMMAX 12
       LM=   0 0  1 0  2 0  3 0  3 3  4 0  4 3  5 0  5 3  6 0  6 3  6 6

:CHA003: TOTAL VALENCE CHARGE INSIDE SPHERE   3 =   4.5303    (RMT=  1.4000 )
:PCS003: PARTIAL CHARGES SPHERE =  3 S,P,D,F,PZ,PXY, D-Z2,D-XY,X2Y2,D-XZ,YZ 
:QTL003: 1.3907 3.1302 0.0080 0.0011 1.0290 2.1012 0.0000 0.0016 0.0018 0.0046 0.0000 0.0000
        Q-s-low E-s-low   Q-p-low E-p-low   Q-d-low E-d-low   Q-f-low E-f-low
:EPL003:  1.3262 -0.9312    0.0424 -0.6222    0.0017 -0.7317    0.0004 -0.8613
        Q-s-hi  E-s-hi    Q-p-hi  E-p-hi    Q-d-hi  E-d-hi    Q-f-hi  E-f-hi 
:EPH003:  0.0646  0.0369    3.0877  0.1416    0.0063  0.2392    0.0007  0.2789
:VZZ003: EFG INSIDE SPHERE   3 =     1.610995      UP TO R =   1.40000

:CHA  : TOTAL VALENCE CHARGE INSIDE UNIT CELL =      42.000000

:SUM  : SUM OF EIGENVALUES =         -32.257962359


        1.ATOM      Cu1                   5 CORE STATES
:1S 001: 1S                -649.686795902 Ry
:2S 001: 2S                 -77.378491947 Ry
:2PP001: 2P*                -67.696084430 Ry
:2P 001: 2P                 -66.189766485 Ry
:3S 001: 3S                  -7.723085875 Ry

        2.ATOM      Ga1                   7 CORE STATES
:1S 002: 1S                -750.834024260 Ry
:2S 002: 2S                 -91.889153571 Ry
:2PP002: 2P*                -81.243472304 Ry
:2P 002: 2P                 -79.210805623 Ry
:3S 002: 3S                 -10.051297216 Ry
:3PP002: 3P*                 -6.612191903 Ry
:3P 002: 3P                  -6.346372323 Ry

        3.ATOM      O 1                   1 CORE STATES
       CORE-FORCE in mRy/a.u. = |F|      Fx             Fy             Fz
:FCO003:   3.ATOM      3.960576802      0.000000000      0.000000000      3.960576802

:1S 003: 1S                 -36.737250442 Ry
:CINT001 Core Integral Atom   1   11.998495
:CINT002 Core Integral Atom   2   17.993652
:CINT003 Core Integral Atom   3    1.999999

       DENSITY AT NUCLEUS
        JATOM        VALENCE       SEMI-CORE          CORE           TOTAL
:RTO001:   1        7.965471        0.000000    22630.695538    22638.661009
:RTO002:   2       12.938089        0.000000    27809.865639    27822.803728
:RTO003:   3       14.990060        0.000000      304.059442      319.049502
     
       CHARGES OF NEW CHARGE DENSITY
:NTO   : INTERSTITIAL CHARGE =     6.765167
:NTO001: CHARGE SPHERE  1    =    27.375238
:NTO002: CHARGE SPHERE  2    =    28.791179
:NTO003: CHARGE SPHERE  3    =     6.530267

:NEC01: NUCLEAR AND ELECTRONIC CHARGE     76.00000    75.99212
     
       CHARGES OF OLD CHARGE DENSITY
:OTO   : INTERSTITIAL CHARGE =     6.773050
:OTO001: CHARGE SPHERE  1    =    27.375238
:OTO002: CHARGE SPHERE  2    =    28.791179
:OTO003: CHARGE SPHERE  3    =     6.530267

:NEC02: NUCLEAR AND ELECTRONIC CHARGE     76.00000    76.00000
     
       CONVERGENCE TEST
:DTO001: DIFFERENCE IN SPHERE  1 =  0.0000001
:DTO002: DIFFERENCE IN SPHERE  2 =  0.0000000
:DTO003: DIFFERENCE IN SPHERE  3 =  0.0000000

:DIS  :  CHARGE DISTANCE       ( 0.0000001 for atom    1 spin 1)      0.0000000
:BIG check (qbig,qrms,qtot)    0.226D-07   0.245D-07   0.236D-07
 
******************************************************
* MULTISECANT MIXING VER6 RELEASE 6.0 OPTIONS        *
* Standard Mode with controls                        *
* Regularization       1.000E-06                     *
* Trust Region Control Active                        *
* Max Number of Memory Steps    8                    *
******************************************************
 
:PLANE:  INTERSTITIAL TOTAL      1.75393 DISTAN  2.331E-07 % 
:CHARG:  CLM CHARGE   /ATOM     75.92735 DISTAN  5.185E-08 % 
 
 Step History DMIX, Red, Pred, Trust, FRMS, FABS
  2  2.0000E-01  1.0000E+00  1.0000E+00  1.0000E+00
  3  2.0000E-01  4.0898E-01  1.0000E+00  1.0000E+00
  4  2.0000E-01  8.4236E-01  8.6158E-01  4.1434E+00
  5  2.0000E-01  1.0000E+00  4.0659E-01  4.6133E+00
  
:NORMS:  Nuclear, Spectral, Froebius, Shanno-Pua   0.1209E+01  0.9976E+00  0.1094E+01  0.9412E+00
:INFO :  Number of Memory Steps    4 Skipping    0
:INFO :  SLambda=    1.3333333  Max    1.3333333

Eigenvalues, unscaled except for SY+YY
   #     SY Real        SY Imag          SS             YY         SY+YY Real      SY+YY Imag
[...]
:PTO005:     -1   -1    0  6.57208664E-02  4.857E-14  3.006E-13
:PTO006:     -2   -1   -1 -6.29129816E-02  3.553E-14 -3.667E-13
:PTO007:     -2   -2   -1 -8.13004374E-02 -2.017E-13 -6.821E-13
:PTO008:     -3   -3   -3  2.83519939E-02  4.523E-14  3.235E-13
:PTO009:     -3   -2   -2  9.18865112E-03 -9.104E-14  1.296E-13
:PTO010:     -3   -3   -2  4.51921207E-02  3.146E-13  1.104E-12
:PTO011:     -1    0    1  4.16518303E-02 -4.960E-13 -5.808E-13
:PTO012:     -2   -1    0 -2.98401097E-02 -1.594E-12 -3.177E-12

:ENE  : ********** TOTAL ENERGY IN Ry =        -7499.42948440

       TOTAL FORCE IN mRy/a.u. = |F|     Fx             Fy             Fz     with/without FOR in case.in2
:FOR001:   1.ATOM          0.000          0.000          0.000          0.000 partial forces
:FOR002:   2.ATOM          0.000          0.000          0.000          0.000 partial forces
:FOR003:   3.ATOM          7.511          0.000          0.000         -7.511 partial forces
       TOTAL FORCE WITH RESPECT TO GLOBAL CARTESIAN COORDINATES:
:FCA001:   1.ATOM                         0.000          0.000          0.000 partial forces
:FCA002:   2.ATOM                         0.000          0.000          0.000 partial forces
:FCA003:   3.ATOM                         0.000          0.000         -7.511 partial forces
       TOTAL FORCE WITH RESPECT TO THE GLOBAL COORDINATE SYSTEM:
:FGL001:   1.ATOM                 0.000000000     0.000000000     0.000000000 partial forces
:FGL002:   2.ATOM                 0.000000000     0.000000000     0.000000000 partial forces
:FGL003:   3.ATOM                -7.511252290    -7.511252290    -7.511252290 partial forces


            ---------
:ITE034: 34. ITERATION
            ---------

:NATO :    3 INDEPENDENT AND    4 TOTAL ATOMS IN UNITCELL
       SUBSTANCE: CuGaO2 KoehlerB86                                           

       LATTICE                      = R   
:POT  : POTENTIAL OPTION EX_PBE EC_PBE VX_PBE VC_PBE
:LAT  : LATTICE CONSTANTS=  5.63135  5.63135 32.31415
:VOL  : UNIT CELL VOLUME =     295.82013
       MODE OF CALCULATION IS       = RELA
       NON-SPINPOLARIZED CALCULATION
:IFFT  : FFT-parameters:   90   90   90 Factor: 2.00
       ATOMNUMBER=  1 Cu1        VCOUL-ZERO =  0.33671E+00
:EFG001:                        EFG         =    -5.75560   *10**21  V / m**2
                               V20  TOT/SRF=    -4.98450     0.18221
                               V22  TOT/SRF=     0.00000     0.00000
                               V22M TOT/SRF=     0.00000     0.00000
                               V21  TOT/SRF=     0.00000     0.00000
                               V21M TOT/SRF=     0.00000     0.00000

              2.87780    0.00000    0.00000        2.87780    0.00000    0.00000
              0.00000    2.87780    0.00000        0.00000    2.87780    0.00000
              0.00000    0.00000   -5.75560        0.00000    0.00000   -5.75560

         MAIN DIRECTIONS OF THE EFG   1.0000  0.0000  0.0000
                                      0.0000  1.0000  0.0000
                                      0.0000  0.0000  1.0000
:ANG001:  ANGLE WITH OLD X-AXIS =         0.0

:ETA001:                         ASYMM. ETA =     0.00000


       ATOMNUMBER=  2 Ga1        VCOUL-ZERO =  0.97972E-01
:EFG002:                        EFG         =     3.51924   *10**21  V / m**2
                               V20  TOT/SRF=     3.04775    -0.04559
                               V22  TOT/SRF=     0.00000     0.00000
                               V22M TOT/SRF=     0.00000     0.00000
                               V21  TOT/SRF=     0.00000     0.00000
                               V21M TOT/SRF=     0.00000     0.00000

             -1.75962    0.00000    0.00000       -1.75962    0.00000    0.00000
              0.00000   -1.75962    0.00000        0.00000   -1.75962    0.00000
              0.00000    0.00000    3.51924        0.00000    0.00000    3.51924

         MAIN DIRECTIONS OF THE EFG   1.0000  0.0000  0.0000
                                      0.0000  1.0000  0.0000
                                      0.0000  0.0000  1.0000
:ANG002:  ANGLE WITH OLD X-AXIS =         0.0

:ETA002:                         ASYMM. ETA =     0.00000


       ATOMNUMBER=  3 O 1        VCOUL-ZERO =  0.16616E+00
:EFG003:                        EFG         =     2.00288   *10**21  V / m**2
                               V20  TOT/SRF=     1.73454     0.31155
                               V22  TOT/SRF=     0.00000     0.00000
                               V22M TOT/SRF=     0.00000     0.00000
                               V21  TOT/SRF=     0.00000     0.00000
                               V21M TOT/SRF=     0.00000     0.00000

             -1.00144    0.00000    0.00000       -1.00144    0.00000    0.00000
              0.00000   -1.00144    0.00000        0.00000   -1.00144    0.00000
              0.00000    0.00000    2.00288        0.00000    0.00000    2.00288

         MAIN DIRECTIONS OF THE EFG   1.0000  0.0000  0.0000
                                      0.0000  1.0000  0.0000
                                      0.0000  0.0000  1.0000
:ANG003:  ANGLE WITH OLD X-AXIS =         0.0

:ETA003:                         ASYMM. ETA =     0.00000


     HELLMANN-FEYNMAN-FORCE IN mRy/a.u. = |F|  Fx       Fy             Fz
:FHF001:   1.ATOM      0.000000000      0.000000000      0.000000000      0.000000000

     HELLMANN-FEYNMAN-FORCE IN mRy/a.u. = |F|  Fx       Fy             Fz
:FHF002:   2.ATOM      0.000000000      0.000000000      0.000000000      0.000000000

     HELLMANN-FEYNMAN-FORCE IN mRy/a.u. = |F|  Fx       Fy             Fz
:FHF003:   3.ATOM     11.471838508      0.000000000      0.000000000    -11.471838508

:FIT001: LUSE= 13 SIGMA OF V-XC FIT FOR ATOM  1  0.7428111E-02
:FIT001: LUSE= 13 SIGMA OF V-XC FIT FOR ATOM  1  0.7428111E-02
:FIT002: LUSE= 13 SIGMA OF V-XC FIT FOR ATOM  2  0.1629406E-01
:FIT002: LUSE= 13 SIGMA OF V-XC FIT FOR ATOM  2  0.1629406E-01
:FIT003: LUSE= 13 SIGMA OF V-XC FIT FOR ATOM  3  0.2267528E-03
:FIT003: LUSE= 13 SIGMA OF V-XC FIT FOR ATOM  3  0.2267528E-03
:DEN  : DENSITY INTEGRAL  =         -3227.00554754   (Ry)
       ELS_POTENTIAL_AT Z=0 and Z=0.5:   0.00000   0.00000
       ELS_POTENTIAL_AT Y=0 and Y=0.5:   0.00000   0.00000
:VZERO:v0,v0c,v0x  -0.78100   0.00000  -0.78100 v5,v5c,v5x  -0.78100   0.00000  -0.78100
:VZERY:v0,v0c,v0x  -0.78100   0.00000  -0.78100 v5,v5c,v5x  -0.78100   0.00000  -0.78100
:VZERX:v0,v0c,v0x  -2.09255  -0.96314  -1.12941 v5,v5c,v5x  -0.29309   0.07269  -0.36578

          ATOMIC SPHERE DEPENDENT PARAMETERS FOR ATOM  Cu1       
:e__0001: OVERALL ENERGY PARAMETER IS    0.2708
          OVERALL BASIS SET ON ATOM IS LAPW
:E1_0001: E( 1)=    0.2708
             APW+lo
:E1_0001: E( 1)=   -4.6059   E(BOTTOM)=   -4.673   E(TOP)=   -4.538  1  2   168
             LOCAL ORBITAL
:E2_0001: E( 2)=    0.3152   E(BOTTOM)=   -0.018   E(TOP)=    0.648  0  1   135
             APW+lo
:E0_0001: E( 0)=    0.2708
             APW+lo

          ATOMIC SPHERE DEPENDENT PARAMETERS FOR ATOM  Ga1       
:e__0002: OVERALL ENERGY PARAMETER IS    0.2708
          OVERALL BASIS SET ON ATOM IS LAPW
:E2_0002: E( 2)=   -0.6246   E(BOTTOM)=   -0.831   E(TOP)=   -0.418  0  1   150
             APW+lo
:E2_0002: E( 2)=    0.6708
             LOCAL ORBITAL
:E0_0002: E( 0)=    0.2708
             APW+lo
:E1_0002: E( 1)=    0.2708
             APW+lo

          ATOMIC SPHERE DEPENDENT PARAMETERS FOR ATOM  O 1       
:e__0003: OVERALL ENERGY PARAMETER IS    0.2708
          OVERALL BASIS SET ON ATOM IS LAPW
:E0_0003: E( 0)=   -1.5500   E(BOTTOM)=   -2.612   E(TOP)= -200.000  1 -1   234
             APW+lo
:E0_0003: E( 0)=    0.6708
             LOCAL ORBITAL
:E1_0003: E( 1)=    0.2708
             APW+lo

       K=   0.00000   0.00000   0.00000            1
:RKM  : MATRIX SIZE   653LOs:  36  RKM= 6.99  WEIGHT= 1.00  PGR:    
       EIGENVALUES ARE:
:EIG00001:      -4.6027053   -4.5852792   -4.5852792   -1.0569066   -0.9138668
:EIG00006:      -0.6037386   -0.6037386   -0.5966262   -0.5804726   -0.5804726
:EIG00011:      -0.1143126    0.1965675    0.2129605    0.2358625    0.2358625
:EIG00016:       0.2537647    0.2537647    0.3525549    0.3525549    0.4159332
:EIG00021:       0.4159332    0.5423534    0.8358189    0.8812287    1.3336855
:EIG00026:       1.3336855    1.3385586    1.6534924    1.7175234    1.7175234
:EIG00031:       1.7610464    1.8080359    1.8080359    1.9009100
       ********************************************************

:KPT   :      NUMBER OF K-POINTS:    32
       Insulator, EF-inconsistency corrected
:GAP  :    0.0715 Ry =     0.973 eV   (provided you have a proper k-mesh)
         Bandranges (emin - emax) and occupancy:
:BAN00011:  11   -0.131484   -0.030869  2.00000000
:BAN00012:  12   -0.072710    0.196568  2.00000000
:BAN00013:  13    0.014114    0.222564  2.00000000
:BAN00014:  14    0.087310    0.235862  2.00000000
:BAN00015:  15    0.140079    0.235862  2.00000000
:BAN00016:  16    0.211379    0.281335  2.00000000
:BAN00017:  17    0.253765    0.352317  2.00000000
:BAN00018:  18    0.340152    0.381710  2.00000000
:BAN00019:  19    0.352488    0.398546  2.00000000
:BAN00020:  20    0.384958    0.423372  2.00000000
:BAN00021:  21    0.393314    0.470813  2.00000000
:BAN00022:  22    0.542353    0.842459  0.00000000
:BAN00023:  23    0.735155    0.898517  0.00000000
:BAN00024:  24    0.876427    1.115261  0.00000000
:BAN00025:  25    1.022014    1.333686  0.00000000
:BAN00026:  26    1.185549    1.367159  0.00000000
        Energy to separate low and high energystates:   -0.18148


:NOE  : NUMBER OF ELECTRONS          =  42.000

:FER  : F E R M I - ENERGY(TETRAH.M.)=   0.4708125035
:GMA  : POTENTIAL AND CHARGE CUT-OFF  12.00 Ry**.5




:POS001: ATOM   -1 X,Y,Z = 0.00000 0.00000 0.00000  MULT= 1  ZZ= 29.000  Cu1       

       LMMAX  7
       LM=   0 0  2 0  4 0  4 3  6 0  6 3  6 6

:CHA001: TOTAL VALENCE CHARGE INSIDE SPHERE   1 =  15.3767    (RMT=  2.0000 )
:PCS001: PARTIAL CHARGES SPHERE =  1 S,P,D,F,PZ,PXY, D-Z2,D-XY,X2Y2,D-XZ,YZ 
:QTL001: 0.2783 6.1528 8.9207 0.0187 2.1133 4.0395 0.0000 1.5678 3.6312 3.7217 0.0000 0.0000
        Q-s-low E-s-low   Q-p-low E-p-low   Q-d-low E-d-low   Q-f-low E-f-low
:EPL001:  0.0209 -0.8822    6.0052 -4.5777    0.0256 -0.8718    0.0033 -0.8928
        Q-s-hi  E-s-hi    Q-p-hi  E-p-hi    Q-d-hi  E-d-hi    Q-f-hi  E-f-hi 
:EPH001:  0.2574  0.2079    0.1476  0.1635    8.8951  0.3513    0.0154  0.1502
:VZZ001: EFG INSIDE SPHERE   1 =    -6.066401      UP TO R =   2.00000




:POS002: ATOM   -2 X,Y,Z = 0.50000 0.50000 0.50000  MULT= 1  ZZ= 31.000  Ga1       

       LMMAX  7
       LM=   0 0  2 0  4 0  4 3  6 0  6 3  6 6

:CHA002: TOTAL VALENCE CHARGE INSIDE SPHERE   2 =  10.7975    (RMT=  2.0000 )
:PCS002: PARTIAL CHARGES SPHERE =  2 S,P,D,F,PZ,PXY, D-Z2,D-XY,X2Y2,D-XZ,YZ 
:QTL002: 0.4403 0.4099 9.9044 0.0341 0.1238 0.2861 0.0000 1.9622 3.9637 3.9786 0.0000 0.0000
        Q-s-low E-s-low   Q-p-low E-p-low   Q-d-low E-d-low   Q-f-low E-f-low
:EPL002:  0.0584 -0.9773    0.0555 -0.9154    9.6089 -0.5880    0.0051 -0.9118
        Q-s-hi  E-s-hi    Q-p-hi  E-p-hi    Q-d-hi  E-d-hi    Q-f-hi  E-f-hi 
:EPH002:  0.3819 -0.0501    0.3545  0.1037    0.2955  0.1471    0.0289  0.1620
:VZZ002: EFG INSIDE SPHERE   2 =     3.627499      UP TO R =   2.00000




:POS003: ATOM   -3 X,Y,Z = 0.10802 0.10802 0.10802  MULT= 2  ZZ=  8.000  O 1       

       LMMAX 12
       LM=   0 0  1 0  2 0  3 0  3 3  4 0  4 3  5 0  5 3  6 0  6 3  6 6

:CHA003: TOTAL VALENCE CHARGE INSIDE SPHERE   3 =   4.5303    (RMT=  1.4000 )
:PCS003: PARTIAL CHARGES SPHERE =  3 S,P,D,F,PZ,PXY, D-Z2,D-XY,X2Y2,D-XZ,YZ 
:QTL003: 1.3907 3.1302 0.0080 0.0011 1.0290 2.1012 0.0000 0.0016 0.0018 0.0046 0.0000 0.0000
        Q-s-low E-s-low   Q-p-low E-p-low   Q-d-low E-d-low   Q-f-low E-f-low
:EPL003:  1.3262 -0.9312    0.0424 -0.6222    0.0017 -0.7317    0.0004 -0.8613
        Q-s-hi  E-s-hi    Q-p-hi  E-p-hi    Q-d-hi  E-d-hi    Q-f-hi  E-f-hi 
:EPH003:  0.0646  0.0369    3.0877  0.1416    0.0063  0.2392    0.0007  0.2789
:VZZ003: EFG INSIDE SPHERE   3 =     1.610995      UP TO R =   1.40000

:CHA  : TOTAL VALENCE CHARGE INSIDE UNIT CELL =      42.000000

:SUM  : SUM OF EIGENVALUES =         -32.257962410


        1.ATOM      Cu1                   5 CORE STATES
:1S 001: 1S                -649.686795921 Ry
:2S 001: 2S                 -77.378491964 Ry
:2PP001: 2P*                -67.696084448 Ry
:2P 001: 2P                 -66.189766503 Ry
:3S 001: 3S                  -7.723085881 Ry

        2.ATOM      Ga1                   7 CORE STATES
:1S 002: 1S                -750.834024258 Ry
:2S 002: 2S                 -91.889153567 Ry
:2PP002: 2P*                -81.243472301 Ry
:2P 002: 2P                 -79.210805619 Ry
:3S 002: 3S                 -10.051297212 Ry
:3PP002: 3P*                 -6.612191899 Ry
:3P 002: 3P                  -6.346372320 Ry

        3.ATOM      O 1                   1 CORE STATES
       CORE-FORCE in mRy/a.u. = |F|      Fx             Fy             Fz
:FCO003:   3.ATOM      3.960586230      0.000000000      0.000000000      3.960586230

:1S 003: 1S                 -36.737250446 Ry
:CINT001 Core Integral Atom   1   11.998495
:CINT002 Core Integral Atom   2   17.993652
:CINT003 Core Integral Atom   3    1.999999

       DENSITY AT NUCLEUS
        JATOM        VALENCE       SEMI-CORE          CORE           TOTAL
:RTO001:   1        7.965471        0.000000    22630.695538    22638.661009
:RTO002:   2       12.938089        0.000000    27809.865632    27822.803721
:RTO003:   3       14.990060        0.000000      304.059442      319.049502
     
       CHARGES OF NEW CHARGE DENSITY
:NTO   : INTERSTITIAL CHARGE =     6.765167
:NTO001: CHARGE SPHERE  1    =    27.375238
:NTO002: CHARGE SPHERE  2    =    28.791179
:NTO003: CHARGE SPHERE  3    =     6.530267

:NEC01: NUCLEAR AND ELECTRONIC CHARGE     76.00000    75.99212
     
       CHARGES OF OLD CHARGE DENSITY
:OTO   : INTERSTITIAL CHARGE =     6.773050
:OTO001: CHARGE SPHERE  1    =    27.375238
:OTO002: CHARGE SPHERE  2    =    28.791179
:OTO003: CHARGE SPHERE  3    =     6.530267

:NEC02: NUCLEAR AND ELECTRONIC CHARGE     76.00000    76.00000
     
       CONVERGENCE TEST
:DTO001: DIFFERENCE IN SPHERE  1 =  0.0000000
:DTO002: DIFFERENCE IN SPHERE  2 =  0.0000000
:DTO003: DIFFERENCE IN SPHERE  3 =  0.0000000

:DIS  :  CHARGE DISTANCE       ( 0.0000000 for atom    1 spin 1)      0.0000000
:BIG check (qbig,qrms,qtot)    0.356D-10   0.527D-10   0.595D-10
 
******************************************************
* MULTISECANT MIXING VER6 RELEASE 6.0 OPTIONS        *
* Standard Mode with controls                        *
* Regularization       1.000E-06                     *
* Trust Region Control Active                        *
* Max Number of Memory Steps    8                    *
******************************************************
 
:PLANE:  INTERSTITIAL TOTAL      1.75393 DISTAN  1.183E-09 % 
:CHARG:  CLM CHARGE   /ATOM     75.92735 DISTAN  8.073E-11 % 
 
 Step History DMIX, Red, Pred, Trust, FRMS, FABS
  6  2.0047E-01  6.9032E-01  2.7569E-01  5.3460E+00
  7  2.1202E-01  7.6798E-01  2.2820E-01  5.6674E+00
  8  2.1526E-01  3.4783E-01  3.0837E-01  6.0855E+00
  9  2.0875E-01  3.7544E-01  5.3150E-01  5.9916E+00
 10  2.0000E-01  5.6586E-01  7.2496E-01  5.3067E+00
 11  2.0000E-01  2.5208E-01  4.2576E-01  4.7013E+00
 12  2.0000E-01  4.8978E-01  6.1354E-01  4.5976E+00
 13  2.0000E-01  1.0000E+00  9.3214E-01  4.3227E+00
  
:NORMS:  Nuclear, Spectral, Froebius, Shanno-Pua   0.1280E+01  0.1228E+01  0.1186E+01  0.6809E+00
:INFO :  Number of Memory Steps    8 Skipping    4
:INFO :  SLambda=    1.3333333  Max    1.3333333

Eigenvalues, unscaled except for SY+YY
   #     SY Real        SY Imag          SS             YY         SY+YY Real      SY+YY Imag
   1   2.522840E+00   0.000000E+00   2.615074E+00   3.944126E+00   7.189501E+00   0.000000E+00
   2   1.915281E+00   0.000000E+00   2.064472E+00   1.910111E+00   4.465779E+00   0.000000E+00
   3   8.992343E-01   0.000000E+00   6.741475E-01   1.418110E+00   2.718505E+00   0.000000E+00
   4   2.357875E-01   0.000000E+00   2.176719E-01   2.909959E-01   5.941421E-01   0.000000E+00
   5   1.330233E-01   0.000000E+00   8.532207E-02   2.405238E-01   4.200028E-01   0.000000E+00
   6   6.490920E-02   0.000000E+00   2.230898E-02   1.517351E-01   2.581739E-01   0.000000E+00
   7   2.879605E-03   0.000000E+00   6.031772E-04   1.095538E-02   1.576131E-02   0.000000E+00
   8   1.698339E-02   0.000000E+00   7.846648E-03   3.344252E-02   5.938568E-02   0.000000E+00
 
:INFO :  Singular value   7.213E+00 Weight  1.0000E+00 Projections  -7.142E-10  3.152E-11
:INFO :  Singular value   4.459E+00 Weight  1.0000E+00 Projections   1.100E-09  1.316E-10
:INFO :  Singular value   2.729E+00 Weight  1.0000E+00 Projections  -1.188E-09 -2.279E-10
:INFO :  Singular value   5.922E-01 Weight  1.0000E+00 Projections   1.725E-10  2.254E-10
:INFO :  Singular value   4.199E-01 Weight  1.0000E+00 Projections   2.788E-10 -1.181E-10
:INFO :  Singular value   2.578E-01 Weight  1.0000E+00 Projections  -2.273E-10  5.020E-10
:INFO :  Singular value   5.940E-02 Weight  1.0000E+00 Projections   4.364E-10 -4.235E-10
:INFO :  Singular value   1.575E-02 Weight  1.0000E+00 Projections  -6.465E-10 -1.825E-09
 
:DIRM :  MEMORY 8/8 RESCALE  21.40 RED 0.684 PRED 0.932 NEXT 0.661
:INFO :  Blimit    4.651E+00  1.124E+00  1.000E+00  4.497E+00
:DIRP :  |MSR1|= 3.876E-10 |PRATT|= 4.439E-10 ANGLE=  25.7 DEGREES
:DIRQ :  |MSR1|= 0.000E+00 |PRATT|= 0.000E+00 ANGLE=   0.0 DEGREES
:DIR  :  |MSR1|= 4.080E-10 |PRATT|= 4.805E-10 ANGLE=  27.9 DEGREES
:MIX  :   MSE1   REGULARIZATION: 3.94E-06  GREED: 0.200  Newton 1.00  0.85                
     
       CHARGES OF MIXED CHARGE DENSITY
:CTO   : INTERSTITIAL CHARGE =     6.773050
:CTO001: CHARGE SPHERE  1    =    27.375238
:CTO002: CHARGE SPHERE  2    =    28.791179
:CTO003: CHARGE SPHERE  3    =     6.530267

:NEC03: NUCLEAR AND ELECTRONIC CHARGE     76.00000    76.00000

PW CHANGE     H    K    L       Current     Change     Residue
:PTO001:      0    0    0  6.29459775E-02  5.577E-14  9.913E-14
:PTO002:     -1   -1   -1 -2.41253435E-02 -3.421E-13 -2.722E-13
:PTO003:     -2   -2   -2 -6.85515592E-03  1.317E-13  1.039E-13
:PTO004:     -1    0    0  1.03380026E-01 -1.901E-13  5.331E-13
:PTO005:     -1   -1    0  6.57208664E-02  3.211E-14  7.201E-14
:PTO006:     -2   -1   -1 -6.29129816E-02 -1.786E-13 -5.977E-13
:PTO007:     -2   -2   -1 -8.13004374E-02 -4.574E-13 -7.692E-13
:PTO008:     -3   -3   -3  2.83519939E-02  7.159E-14  2.027E-13
:PTO009:     -3   -2   -2  9.18865112E-03 -1.767E-13 -4.769E-14
:PTO010:     -3   -3   -2  4.51921207E-02  3.562E-13  5.784E-13
:PTO011:     -1    0    1  4.16518303E-02 -5.119E-13 -1.772E-13
:PTO012:     -2   -1    0 -2.98401097E-02 -2.042E-12 -2.037E-12

:ENE  : ********** TOTAL ENERGY IN Ry =        -7499.42948440

       TOTAL FORCE IN mRy/a.u. = |F|     Fx             Fy             Fz     with/without FOR in case.in2
:FOR001:   1.ATOM          0.000          0.000          0.000          0.000 partial forces
:FOR002:   2.ATOM          0.000          0.000          0.000          0.000 partial forces
:FOR003:   3.ATOM          7.511          0.000          0.000         -7.511 partial forces
       TOTAL FORCE WITH RESPECT TO GLOBAL CARTESIAN COORDINATES:
:FCA001:   1.ATOM                         0.000          0.000          0.000 partial forces
:FCA002:   2.ATOM                         0.000          0.000          0.000 partial forces
:FCA003:   3.ATOM                         0.000          0.000         -7.511 partial forces
       TOTAL FORCE WITH RESPECT TO THE GLOBAL COORDINATE SYSTEM:
:FGL001:   1.ATOM                 0.000000000     0.000000000     0.000000000 partial forces
:FGL002:   2.ATOM                 0.000000000     0.000000000     0.000000000 partial forces
:FGL003:   3.ATOM                -7.511252278    -7.511252278    -7.511252278 partial forces
