
:LABEL1: Calculations in /home/stevezhang/work/CuMO2/convergence/CuGaO2/rkmax_8-scfk_6c/CuGaO2
:LABEL2: on MZ at Tue Jun 22 14:57:01 CST 2021
:LABEL3: using WIEN2k_14.2 (Release 15/10/2014) in /home/stevezhang/wien2k/v14.2
:LABEL4: using the command: run_lapw -ec 0.000000001


            ---------
:ITE001:  1. ITERATION
            ---------

:NATO :    3 INDEPENDENT AND    4 TOTAL ATOMS IN UNITCELL
       SUBSTANCE: CuGaO2 KoehlerB86                                           

       LATTICE                      = R   
:POT  : POTENTIAL OPTION EX_PBE EC_PBE VX_PBE VC_PBE
:LAT  : LATTICE CONSTANTS=  5.63135  5.63135 32.31415
:VOL  : UNIT CELL VOLUME =     295.82013
       MODE OF CALCULATION IS       = RELA
       NON-SPINPOLARIZED CALCULATION
:IFFT  : FFT-parameters:   90   90   90 Factor: 2.00
       ATOMNUMBER=  1 Cu1        VCOUL-ZERO =  0.32686E+00
:EFG001:                        EFG         =     0.15129   *10**21  V / m**2
                               V20  TOT/SRF=     0.13102     0.36294
                               V22  TOT/SRF=     0.00000     0.00000
                               V22M TOT/SRF=     0.00000     0.00000
                               V21  TOT/SRF=     0.00000     0.00000
                               V21M TOT/SRF=     0.00000     0.00000

             -0.07565    0.00000    0.00000       -0.07565    0.00000    0.00000
              0.00000   -0.07565    0.00000        0.00000   -0.07565    0.00000
              0.00000    0.00000    0.15129        0.00000    0.00000    0.15129

         MAIN DIRECTIONS OF THE EFG   1.0000  0.0000  0.0000
                                      0.0000  1.0000  0.0000
                                      0.0000  0.0000  1.0000
:ANG001:  ANGLE WITH OLD X-AXIS =         0.0

:ETA001:                         ASYMM. ETA =     0.00000


       ATOMNUMBER=  2 Ga1        VCOUL-ZERO =  0.15891E+00
:EFG002:                        EFG         =    -0.08882   *10**21  V / m**2
                               V20  TOT/SRF=    -0.07692    -0.13786
                               V22  TOT/SRF=     0.00000     0.00000
                               V22M TOT/SRF=     0.00000     0.00000
                               V21  TOT/SRF=     0.00000     0.00000
                               V21M TOT/SRF=     0.00000     0.00000

              0.04441    0.00000    0.00000        0.04441    0.00000    0.00000
              0.00000    0.04441    0.00000        0.00000    0.04441    0.00000
              0.00000    0.00000   -0.08882        0.00000    0.00000   -0.08882

         MAIN DIRECTIONS OF THE EFG   1.0000  0.0000  0.0000
                                      0.0000  1.0000  0.0000
                                      0.0000  0.0000  1.0000
:ANG002:  ANGLE WITH OLD X-AXIS =         0.0

:ETA002:                         ASYMM. ETA =     0.00000


       ATOMNUMBER=  3 O 1        VCOUL-ZERO =  0.15852E-01
:EFG003:                        EFG         =     0.33028   *10**21  V / m**2
                               V20  TOT/SRF=     0.28603     0.35722
                               V22  TOT/SRF=     0.00000     0.00000
                               V22M TOT/SRF=     0.00000     0.00000
                               V21  TOT/SRF=     0.00000     0.00000
                               V21M TOT/SRF=     0.00000     0.00000

             -0.16514    0.00000    0.00000       -0.16514    0.00000    0.00000
              0.00000   -0.16514    0.00000        0.00000   -0.16514    0.00000
              0.00000    0.00000    0.33028        0.00000    0.00000    0.33028

         MAIN DIRECTIONS OF THE EFG   1.0000  0.0000  0.0000
                                      0.0000  1.0000  0.0000
                                      0.0000  0.0000  1.0000
:ANG003:  ANGLE WITH OLD X-AXIS =         0.0

:ETA003:                         ASYMM. ETA =     0.00000


     HELLMANN-FEYNMAN-FORCE IN mRy/a.u. = |F|  Fx       Fy             Fz
:FHF001:   1.ATOM      0.000000000      0.000000000      0.000000000      0.000000000

     HELLMANN-FEYNMAN-FORCE IN mRy/a.u. = |F|  Fx       Fy             Fz
:FHF002:   2.ATOM      0.000000000      0.000000000      0.000000000      0.000000000

     HELLMANN-FEYNMAN-FORCE IN mRy/a.u. = |F|  Fx       Fy             Fz
:FHF003:   3.ATOM    212.937770292      0.000000000      0.000000000   -212.937770292

:FIT001: LUSE= 13 SIGMA OF V-XC FIT FOR ATOM  1  0.6999039E-02
:FIT001: LUSE= 13 SIGMA OF V-XC FIT FOR ATOM  1  0.6999039E-02
:FIT002: LUSE= 13 SIGMA OF V-XC FIT FOR ATOM  2  0.6669912E-02
:FIT002: LUSE= 13 SIGMA OF V-XC FIT FOR ATOM  2  0.6669912E-02
:FIT003: LUSE= 13 SIGMA OF V-XC FIT FOR ATOM  3  0.9705174E-04
:FIT003: LUSE= 13 SIGMA OF V-XC FIT FOR ATOM  3  0.9705174E-04
:DEN  : DENSITY INTEGRAL  =         -3223.79236743   (Ry)
       ELS_POTENTIAL_AT Z=0 and Z=0.5:   0.00000   0.00000
       ELS_POTENTIAL_AT Y=0 and Y=0.5:   0.00000   0.00000
:VZERO:v0,v0c,v0x  -0.81881   0.00000  -0.81881 v5,v5c,v5x  -0.81881   0.00000  -0.81881
:VZERY:v0,v0c,v0x  -0.81881   0.00000  -0.81881 v5,v5c,v5x  -0.81881   0.00000  -0.81881
:VZERX:v0,v0c,v0x  -2.29114  -1.14637  -1.14476 v5,v5c,v5x  -0.30051   0.21426  -0.51477

          ATOMIC SPHERE DEPENDENT PARAMETERS FOR ATOM  Cu1       
:e__0001: OVERALL ENERGY PARAMETER IS    0.3000
          OVERALL BASIS SET ON ATOM IS LAPW
:E1_0001: E( 1)=    0.3000
             APW+lo
:E1_0001: E( 1)=   -4.7362   E(BOTTOM)=   -4.801   E(TOP)=   -4.671  1  2   163
             LOCAL ORBITAL
:E2_0001: E( 2)=    0.2013   E(BOTTOM)=   -0.117   E(TOP)=    0.519  0  1   133
             APW+lo
:E0_0001: E( 0)=    0.3000
             APW+lo

          ATOMIC SPHERE DEPENDENT PARAMETERS FOR ATOM  Ga1       
:e__0002: OVERALL ENERGY PARAMETER IS    0.3000
          OVERALL BASIS SET ON ATOM IS LAPW
:E2_0002: E( 2)=   -0.5107   E(BOTTOM)=   -0.722   E(TOP)=   -0.299  0  1   155
             APW+lo
:E2_0002: E( 2)=    0.7000
             LOCAL ORBITAL
:E0_0002: E( 0)=    0.3000
             APW+lo
:E1_0002: E( 1)=    0.3000
             APW+lo

          ATOMIC SPHERE DEPENDENT PARAMETERS FOR ATOM  O 1       
:e__0003: OVERALL ENERGY PARAMETER IS    0.3000
          OVERALL BASIS SET ON ATOM IS LAPW
:E0_0003: E( 0)=   -1.5500   E(BOTTOM)=   -2.801   E(TOP)= -200.000  1 -1   242
             APW+lo
:E0_0003: E( 0)=    0.7000
             LOCAL ORBITAL
:E1_0003: E( 1)=    0.3000
             APW+lo

       K=   0.00000   0.00000   0.00000            1
:RKM  : MATRIX SIZE   991LOs:  36  RKM= 7.99  WEIGHT= 1.00  PGR:    
       EIGENVALUES ARE:
:EIG00001:      -4.7289040   -4.7185088   -4.7185088   -1.1849098   -1.0676564
:EIG00006:      -0.5060328   -0.5060328   -0.4933636   -0.4654856   -0.4654856
:EIG00011:      -0.2032003    0.0440970    0.1014907    0.1014907    0.1042833
:EIG00016:       0.1042833    0.1633811    0.2440594    0.2440594    0.2913343
:EIG00021:       0.2913343    0.4650384    0.8012634    0.8092957    1.3135199
:EIG00026:       1.3494310    1.3494310    1.6231673    1.7092252    1.7092252
:EIG00031:       1.7667245    1.7736622    1.7736622    1.9021968
       ********************************************************

:KPT   :      NUMBER OF K-POINTS:    32
       Insulator, EF-inconsistency corrected
:GAP  :    0.1086 Ry =     1.477 eV   (provided you have a proper k-mesh)
         Bandranges (emin - emax) and occupancy:
:BAN00011:  11   -0.203200   -0.130750  2.00000000
:BAN00012:  12   -0.180817    0.044097  2.00000000
:BAN00013:  13   -0.093498    0.101491  2.00000000
:BAN00014:  14   -0.027214    0.101491  2.00000000
:BAN00015:  15    0.005106    0.132773  2.00000000
:BAN00016:  16    0.080993    0.138151  2.00000000
:BAN00017:  17    0.162096    0.248149  2.00000000
:BAN00018:  18    0.236315    0.267217  2.00000000
:BAN00019:  19    0.244011    0.282911  2.00000000
:BAN00020:  20    0.268375    0.294746  2.00000000
:BAN00021:  21    0.283390    0.356418  2.00000000
:BAN00022:  22    0.465038    0.827913  0.00000000
:BAN00023:  23    0.617048    0.843748  0.00000000
:BAN00024:  24    0.809296    1.090730  0.00000000
:BAN00025:  25    0.980516    1.313520  0.00000000
:BAN00026:  26    1.142214    1.351887  0.00000000
        Energy to separate low and high energystates:   -0.25320


:NOE  : NUMBER OF ELECTRONS          =  42.000

:FER  : F E R M I - ENERGY(TETRAH.M.)=   0.3564179976
:GMA  : POTENTIAL AND CHARGE CUT-OFF  12.00 Ry**.5




:POS001: ATOM   -1 X,Y,Z = 0.00000 0.00000 0.00000  MULT= 1  ZZ= 29.000  Cu1       

       LMMAX  7
       LM=   0 0  2 0  4 0  4 3  6 0  6 3  6 6

:CHA001: TOTAL VALENCE CHARGE INSIDE SPHERE   1 =  15.5279    (RMT=  2.0000 )
:PCS001: PARTIAL CHARGES SPHERE =  1 S,P,D,F,PZ,PXY, D-Z2,D-XY,X2Y2,D-XZ,YZ 
:QTL001: 0.2257 6.1263 9.1503 0.0189 2.1022 4.0241 0.0000 1.6890 3.7002 3.7611 0.0000 0.0000
        Q-s-low E-s-low   Q-p-low E-p-low   Q-d-low E-d-low   Q-f-low E-f-low
:EPL001:  0.0209 -0.9534    6.0064 -4.7083    0.0295 -0.9140    0.0037 -1.0025
        Q-s-hi  E-s-hi    Q-p-hi  E-p-hi    Q-d-hi  E-d-hi    Q-f-hi  E-f-hi 
:EPH001:  0.2047  0.1063    0.1199  0.0262    9.1207  0.2441    0.0152  0.0124
:VZZ001: EFG INSIDE SPHERE   1 =    -6.928542      UP TO R =   2.00000




:POS002: ATOM   -2 X,Y,Z = 0.50000 0.50000 0.50000  MULT= 1  ZZ= 31.000  Ga1       

       LMMAX  7
       LM=   0 0  2 0  4 0  4 3  6 0  6 3  6 6

:CHA002: TOTAL VALENCE CHARGE INSIDE SPHERE   2 =  10.5510    (RMT=  2.0000 )
:PCS002: PARTIAL CHARGES SPHERE =  2 S,P,D,F,PZ,PXY, D-Z2,D-XY,X2Y2,D-XZ,YZ 
:QTL002: 0.3318 0.3119 9.8668 0.0315 0.0909 0.2211 0.0000 1.9561 3.9483 3.9625 0.0000 0.0000
        Q-s-low E-s-low   Q-p-low E-p-low   Q-d-low E-d-low   Q-f-low E-f-low
:EPL002:  0.0467 -1.0530    0.0465 -1.0245    9.3591 -0.4807    0.0050 -1.0439
        Q-s-hi  E-s-hi    Q-p-hi  E-p-hi    Q-d-hi  E-d-hi    Q-f-hi  E-f-hi 
:EPH002:  0.2852 -0.1379    0.2655 -0.0213    0.5077  0.0013    0.0264  0.0288
:VZZ002: EFG INSIDE SPHERE   2 =     3.453969      UP TO R =   2.00000




:POS003: ATOM   -3 X,Y,Z = 0.10802 0.10802 0.10802  MULT= 2  ZZ=  8.000  O 1       

       LMMAX 12
       LM=   0 0  1 0  2 0  3 0  3 3  4 0  4 3  5 0  5 3  6 0  6 3  6 6

:CHA003: TOTAL VALENCE CHARGE INSIDE SPHERE   3 =   4.9151    (RMT=  1.4000 )
:PCS003: PARTIAL CHARGES SPHERE =  3 S,P,D,F,PZ,PXY, D-Z2,D-XY,X2Y2,D-XZ,YZ 
:QTL003: 1.4322 3.4744 0.0072 0.0011 1.1368 2.3376 0.0000 0.0017 0.0015 0.0040 0.0000 0.0000
        Q-s-low E-s-low   Q-p-low E-p-low   Q-d-low E-d-low   Q-f-low E-f-low
:EPL003:  1.3881 -1.0832    0.1003 -0.5021    0.0020 -0.6251    0.0004 -0.7690
        Q-s-hi  E-s-hi    Q-p-hi  E-p-hi    Q-d-hi  E-d-hi    Q-f-hi  E-f-hi 
:EPH003:  0.0442 -0.0482    3.3740  0.0121    0.0052  0.1432    0.0007  0.1700
:VZZ003: EFG INSIDE SPHERE   3 =     2.401427      UP TO R =   1.40000

:CHA  : TOTAL VALENCE CHARGE INSIDE UNIT CELL =      42.000000

:SUM  : SUM OF EIGENVALUES =         -35.074613710


        1.ATOM      Cu1                   5 CORE STATES
:1S 001: 1S                -649.794891879 Ry
:2S 001: 2S                 -77.519260472 Ry
:2PP001: 2P*                -67.833424517 Ry
:2P 001: 2P                 -66.327499566 Ry
:3S 001: 3S                  -7.858150597 Ry

        2.ATOM      Ga1                   7 CORE STATES
:1S 002: 1S                -750.711799685 Ry
:2S 002: 2S                 -91.781668569 Ry
:2PP002: 2P*                -81.134875914 Ry
:2P 002: 2P                 -79.102359487 Ry
:3S 002: 3S                  -9.930625329 Ry
:3PP002: 3P*                 -6.491721116 Ry
:3P 002: 3P                  -6.225690821 Ry

        3.ATOM      O 1                   1 CORE STATES
       CORE-FORCE in mRy/a.u. = |F|      Fx             Fy             Fz
:FCO003:   3.ATOM     53.628184497      0.000000000      0.000000000     53.628184497

:1S 003: 1S                 -37.003846972 Ry
:CINT001 Core Integral Atom   1   11.998563
:CINT002 Core Integral Atom   2   17.993463
:CINT003 Core Integral Atom   3    1.999999

       DENSITY AT NUCLEUS
        JATOM        VALENCE       SEMI-CORE          CORE           TOTAL
:RTO001:   1        6.358010        0.000000    22630.834342    22637.192353
:RTO002:   2        9.274701        0.000000    27809.840362    27819.115063
:RTO003:   3       15.777338        0.000000      303.980229      319.757567
     
       CHARGES OF NEW CHARGE DENSITY
:NTO   : INTERSTITIAL CHARGE =     6.090902
:NTO001: CHARGE SPHERE  1    =    27.526427
:NTO002: CHARGE SPHERE  2    =    28.544454
:NTO003: CHARGE SPHERE  3    =     6.915110

:NEC01: NUCLEAR AND ELECTRONIC CHARGE     76.00000    75.99200
     
       CHARGES OF OLD CHARGE DENSITY
:OTO   : INTERSTITIAL CHARGE =     7.030203
:OTO001: CHARGE SPHERE  1    =    27.262855
:OTO002: CHARGE SPHERE  2    =    29.078303
:OTO003: CHARGE SPHERE  3    =     6.314868

:NEC02: NUCLEAR AND ELECTRONIC CHARGE     76.00000    76.00110
     
       CONVERGENCE TEST
:DTO001: DIFFERENCE IN SPHERE  1 =  0.6962211
:DTO002: DIFFERENCE IN SPHERE  2 =  0.3764680
:DTO003: DIFFERENCE IN SPHERE  3 =  0.7615636

:DIS  :  CHARGE DISTANCE       ( 0.7615636 for atom    3 spin 1)      0.6489541
:BIG check (qbig,qrms,qtot)    0.254D+00   0.473D+00   0.649D+00
 
******************************************************
* MULTISECANT MIXING VER6 RELEASE 6.0 OPTIONS        *
* Standard Mode with controls                        *
* Regularization       1.000E-06                     *
* Trust Region Control Active                        *
* Max Number of Memory Steps    8                    *
******************************************************
 
:PLANE:  INTERSTITIAL TOTAL      1.75670 DISTAN  3.037E+01 % 
:CHARG:  CLM CHARGE   /ATOM     75.91131 DISTAN  1.291E+00 % 
:REDuction and DMIX in Broyd:    0.7726    0.1545
:DIRM :  MEMORY  0/ 8 RESCALES   1.00
:MIX  :   PRATT  REGULARIZATION: 1.00E-06  GREED: 0.035
     
       CHARGES OF MIXED CHARGE DENSITY
:CTO   : INTERSTITIAL CHARGE =     6.996548
:CTO001: CHARGE SPHERE  1    =    27.272080
:CTO002: CHARGE SPHERE  2    =    29.059618
:CTO003: CHARGE SPHERE  3    =     6.335877

:NEC03: NUCLEAR AND ELECTRONIC CHARGE     76.00000    76.00000

PW CHANGE     H    K    L       Current     Change     Residue
:PTO001:      0    0    0  6.76530365E-02 -9.665E-05 -2.761E-03
:PTO002:     -1   -1   -1 -2.53288320E-02  4.122E-05  1.178E-03
:PTO003:     -2   -2   -2  3.40747728E-03 -4.083E-04 -1.167E-02
:PTO004:     -1    0    0  8.63502465E-02  1.316E-03  3.760E-02
:PTO005:     -1   -1    0  8.59566980E-02 -3.119E-04 -8.911E-03
:PTO006:     -2   -1   -1 -3.14728097E-02 -1.322E-03 -3.777E-02
:PTO007:     -2   -2   -1 -7.64624799E-02 -4.785E-04 -1.367E-02
:PTO008:     -3   -3   -3  2.36191907E-02  3.717E-04  1.062E-02
:PTO009:     -3   -2   -2  3.79949653E-03  3.519E-04  1.005E-02
:PTO010:     -3   -3   -2  5.51967497E-02  1.188E-04  3.393E-03
:PTO011:     -1    0    1  5.32710038E-02  1.271E-04  3.631E-03
:PTO012:     -2   -1    0 -3.07047239E-02 -9.346E-05 -2.670E-03

:ENE  : ********** TOTAL ENERGY IN Ry =        -7499.61740468

       TOTAL FORCE IN mRy/a.u. = |F|     Fx             Fy             Fz     with/without FOR in case.in2
:FOR001:   1.ATOM          0.000          0.000          0.000          0.000 partial forces
:FOR002:   2.ATOM          0.000          0.000          0.000          0.000 partial forces
:FOR003:   3.ATOM        159.310          0.000          0.000       -159.310 partial forces
       TOTAL FORCE WITH RESPECT TO GLOBAL CARTESIAN COORDINATES:
:FCA001:   1.ATOM                         0.000          0.000          0.000 partial forces
:FCA002:   2.ATOM                         0.000          0.000          0.000 partial forces
:FCA003:   3.ATOM                         0.000          0.000       -159.310 partial forces
       TOTAL FORCE WITH RESPECT TO THE GLOBAL COORDINATE SYSTEM:
:FGL001:   1.ATOM                 0.000000000     0.000000000     0.000000000 partial forces
:FGL002:   2.ATOM                 0.000000000     0.000000000     0.000000000 partial forces
:FGL003:   3.ATOM              -159.309585795  -159.309585795  -159.309585795 partial forces


            ---------
:ITE002:  2. ITERATION
            ---------

:NATO :    3 INDEPENDENT AND    4 TOTAL ATOMS IN UNITCELL
       SUBSTANCE: CuGaO2 KoehlerB86                                           

       LATTICE                      = R   
:POT  : POTENTIAL OPTION EX_PBE EC_PBE VX_PBE VC_PBE
:LAT  : LATTICE CONSTANTS=  5.63135  5.63135 32.31415
:VOL  : UNIT CELL VOLUME =     295.82013
       MODE OF CALCULATION IS       = RELA
       NON-SPINPOLARIZED CALCULATION
:IFFT  : FFT-parameters:   90   90   90 Factor: 2.00
       ATOMNUMBER=  1 Cu1        VCOUL-ZERO =  0.32743E+00
:EFG001:                        EFG         =    -0.09731   *10**21  V / m**2
                               V20  TOT/SRF=    -0.08427     0.34569
                               V22  TOT/SRF=     0.00000     0.00000
                               V22M TOT/SRF=     0.00000     0.00000
                               V21  TOT/SRF=     0.00000     0.00000
                               V21M TOT/SRF=     0.00000     0.00000

              0.04866    0.00000    0.00000        0.04866    0.00000    0.00000
              0.00000    0.04866    0.00000        0.00000    0.04866    0.00000
              0.00000    0.00000   -0.09731        0.00000    0.00000   -0.09731

         MAIN DIRECTIONS OF THE EFG   1.0000  0.0000  0.0000
                                      0.0000  1.0000  0.0000
                                      0.0000  0.0000  1.0000
:ANG001:  ANGLE WITH OLD X-AXIS =         0.0

:ETA001:                         ASYMM. ETA =     0.00000


       ATOMNUMBER=  2 Ga1        VCOUL-ZERO =  0.15434E+00
:EFG002:                        EFG         =     0.03297   *10**21  V / m**2
                               V20  TOT/SRF=     0.02855    -0.13322
                               V22  TOT/SRF=     0.00000     0.00000
                               V22M TOT/SRF=     0.00000     0.00000
                               V21  TOT/SRF=     0.00000     0.00000
                               V21M TOT/SRF=     0.00000     0.00000

             -0.01648    0.00000    0.00000       -0.01648    0.00000    0.00000
              0.00000   -0.01648    0.00000        0.00000   -0.01648    0.00000
              0.00000    0.00000    0.03297        0.00000    0.00000    0.03297

         MAIN DIRECTIONS OF THE EFG   1.0000  0.0000  0.0000
                                      0.0000  1.0000  0.0000
                                      0.0000  0.0000  1.0000
:ANG002:  ANGLE WITH OLD X-AXIS =         0.0

:ETA002:                         ASYMM. ETA =     0.00000


       ATOMNUMBER=  3 O 1        VCOUL-ZERO =  0.27077E-01
:EFG003:                        EFG         =     0.41254   *10**21  V / m**2
                               V20  TOT/SRF=     0.35727     0.35235
                               V22  TOT/SRF=     0.00000     0.00000
                               V22M TOT/SRF=     0.00000     0.00000
                               V21  TOT/SRF=     0.00000     0.00000
                               V21M TOT/SRF=     0.00000     0.00000

             -0.20627    0.00000    0.00000       -0.20627    0.00000    0.00000
              0.00000   -0.20627    0.00000        0.00000   -0.20627    0.00000
              0.00000    0.00000    0.41254        0.00000    0.00000    0.41254

         MAIN DIRECTIONS OF THE EFG   1.0000  0.0000  0.0000
                                      0.0000  1.0000  0.0000
                                      0.0000  0.0000  1.0000
:ANG003:  ANGLE WITH OLD X-AXIS =         0.0

:ETA003:                         ASYMM. ETA =     0.00000


     HELLMANN-FEYNMAN-FORCE IN mRy/a.u. = |F|  Fx       Fy             Fz
:FHF001:   1.ATOM      0.000000000      0.000000000      0.000000000      0.000000000

     HELLMANN-FEYNMAN-FORCE IN mRy/a.u. = |F|  Fx       Fy             Fz
:FHF002:   2.ATOM      0.000000000      0.000000000      0.000000000      0.000000000

     HELLMANN-FEYNMAN-FORCE IN mRy/a.u. = |F|  Fx       Fy             Fz
:FHF003:   3.ATOM    216.579475316      0.000000000      0.000000000   -216.579475316

:FIT001: LUSE= 13 SIGMA OF V-XC FIT FOR ATOM  1  0.6967881E-02
:FIT001: LUSE= 13 SIGMA OF V-XC FIT FOR ATOM  1  0.6967881E-02
:FIT002: LUSE= 13 SIGMA OF V-XC FIT FOR ATOM  2  0.7026961E-02
:FIT002: LUSE= 13 SIGMA OF V-XC FIT FOR ATOM  2  0.7026961E-02
:FIT003: LUSE= 13 SIGMA OF V-XC FIT FOR ATOM  3  0.1000354E-03
:FIT003: LUSE= 13 SIGMA OF V-XC FIT FOR ATOM  3  0.1000354E-03
:DEN  : DENSITY INTEGRAL  =         -3224.37358153   (Ry)
       ELS_POTENTIAL_AT Z=0 and Z=0.5:   0.00000   0.00000
       ELS_POTENTIAL_AT Y=0 and Y=0.5:   0.00000   0.00000
:VZERO:v0,v0c,v0x  -0.81713   0.00000  -0.81713 v5,v5c,v5x  -0.81713   0.00000  -0.81713
:VZERY:v0,v0c,v0x  -0.81713   0.00000  -0.81713 v5,v5c,v5x  -0.81713   0.00000  -0.81713
:VZERX:v0,v0c,v0x  -2.27772  -1.13154  -1.14618 v5,v5c,v5x  -0.30792   0.20071  -0.50863

          ATOMIC SPHERE DEPENDENT PARAMETERS FOR ATOM  Cu1       
:e__0001: OVERALL ENERGY PARAMETER IS    0.1923
          OVERALL BASIS SET ON ATOM IS LAPW
:E1_0001: E( 1)=    0.1923
             APW+lo
:E1_0001: E( 1)=   -4.7172   E(BOTTOM)=   -4.783   E(TOP)=   -4.652  1  2   159
             LOCAL ORBITAL
:E2_0001: E( 2)=    0.2176   E(BOTTOM)=   -0.103   E(TOP)=    0.538  0  1   130
             APW+lo
:E0_0001: E( 0)=    0.1923
             APW+lo

          ATOMIC SPHERE DEPENDENT PARAMETERS FOR ATOM  Ga1       
:e__0002: OVERALL ENERGY PARAMETER IS    0.1923
          OVERALL BASIS SET ON ATOM IS LAPW
:E2_0002: E( 2)=   -0.5221   E(BOTTOM)=   -0.733   E(TOP)=   -0.311  0  1   157
             APW+lo
:E2_0002: E( 2)=    0.5923
             LOCAL ORBITAL
:E0_0002: E( 0)=    0.1923
             APW+lo
:E1_0002: E( 1)=    0.1923
             APW+lo

          ATOMIC SPHERE DEPENDENT PARAMETERS FOR ATOM  O 1       
:e__0003: OVERALL ENERGY PARAMETER IS    0.1923
          OVERALL BASIS SET ON ATOM IS LAPW
:E0_0003: E( 0)=   -1.5500   E(BOTTOM)=   -2.783   E(TOP)= -200.000  1 -1   243
             APW+lo
:E0_0003: E( 0)=    0.5923
             LOCAL ORBITAL
:E1_0003: E( 1)=    0.1923
             APW+lo

       K=   0.00000   0.00000   0.00000            1
:RKM  : MATRIX SIZE   991LOs:  36  RKM= 7.99  WEIGHT= 1.00  PGR:    
       EIGENVALUES ARE:
:EIG00001:      -4.7094527   -4.6996278   -4.6996278   -1.1715012   -1.0517768
:EIG00006:      -0.5155625   -0.5155625   -0.5026118   -0.4769385   -0.4769385
:EIG00011:      -0.1938271    0.0600739    0.1176445    0.1176445    0.1185624
:EIG00016:       0.1185624    0.1714760    0.2593171    0.2593171    0.3080979
:EIG00021:       0.3080979    0.4745729    0.8098467    0.8117732    1.3158459
:EIG00026:       1.3481488    1.3481488    1.6258897    1.7100383    1.7100383
:EIG00031:       1.7655272    1.7778315    1.7778315
       ********************************************************

:KPT   :      NUMBER OF K-POINTS:    32
       Insulator, EF-inconsistency corrected
:GAP  :    0.1017 Ry =     1.384 eV   (provided you have a proper k-mesh)
         Bandranges (emin - emax) and occupancy:
:BAN00011:  11   -0.193827   -0.120264  2.00000000
:BAN00012:  12   -0.168728    0.060074  2.00000000
:BAN00013:  13   -0.081990    0.117644  2.00000000
:BAN00014:  14   -0.013322    0.117644  2.00000000
:BAN00015:  15    0.019614    0.147144  2.00000000
:BAN00016:  16    0.095592    0.152911  2.00000000
:BAN00017:  17    0.170998    0.263010  2.00000000
:BAN00018:  18    0.249718    0.283432  2.00000000
:BAN00019:  19    0.259267    0.299113  2.00000000
:BAN00020:  20    0.284723    0.311683  2.00000000
:BAN00021:  21    0.298425    0.372836  2.00000000
:BAN00022:  22    0.474573    0.829757  0.00000000
:BAN00023:  23    0.631002    0.849438  0.00000000
:BAN00024:  24    0.811773    1.092882  0.00000000
:BAN00025:  25    0.983349    1.315846  0.00000000
:BAN00026:  26    1.146625    1.350797  0.00000000
        Energy to separate low and high energystates:   -0.24383


:NOE  : NUMBER OF ELECTRONS          =  42.000

:FER  : F E R M I - ENERGY(TETRAH.M.)=   0.3728359243
:GMA  : POTENTIAL AND CHARGE CUT-OFF  12.00 Ry**.5




:POS001: ATOM   -1 X,Y,Z = 0.00000 0.00000 0.00000  MULT= 1  ZZ= 29.000  Cu1       

       LMMAX  7
       LM=   0 0  2 0  4 0  4 3  6 0  6 3  6 6

:CHA001: TOTAL VALENCE CHARGE INSIDE SPHERE   1 =  15.5039    (RMT=  2.0000 )
:PCS001: PARTIAL CHARGES SPHERE =  1 S,P,D,F,PZ,PXY, D-Z2,D-XY,X2Y2,D-XZ,YZ 
:QTL001: 0.2321 6.1290 9.1172 0.0189 2.1033 4.0258 0.0000 1.6706 3.6912 3.7554 0.0000 0.0000
        Q-s-low E-s-low   Q-p-low E-p-low   Q-d-low E-d-low   Q-f-low E-f-low
:EPL001:  0.0207 -0.9518    6.0061 -4.6894    0.0285 -0.9189    0.0036 -0.9941
        Q-s-hi  E-s-hi    Q-p-hi  E-p-hi    Q-d-hi  E-d-hi    Q-f-hi  E-f-hi 
:EPH001:  0.2114  0.1193    0.1229  0.0418    9.0887  0.2596    0.0152  0.0271
:VZZ001: EFG INSIDE SPHERE   1 =    -6.547037      UP TO R =   2.00000




:POS002: ATOM   -2 X,Y,Z = 0.50000 0.50000 0.50000  MULT= 1  ZZ= 31.000  Ga1       

       LMMAX  7
       LM=   0 0  2 0  4 0  4 3  6 0  6 3  6 6

:CHA002: TOTAL VALENCE CHARGE INSIDE SPHERE   2 =  10.5741    (RMT=  2.0000 )
:PCS002: PARTIAL CHARGES SPHERE =  2 S,P,D,F,PZ,PXY, D-Z2,D-XY,X2Y2,D-XZ,YZ 
:QTL002: 0.3418 0.3206 9.8710 0.0317 0.0937 0.2269 0.0000 1.9568 3.9500 3.9642 0.0000 0.0000
        Q-s-low E-s-low   Q-p-low E-p-low   Q-d-low E-d-low   Q-f-low E-f-low
:EPL002:  0.0472 -1.0523    0.0471 -1.0166    9.4010 -0.4912    0.0050 -1.0317
        Q-s-hi  E-s-hi    Q-p-hi  E-p-hi    Q-d-hi  E-d-hi    Q-f-hi  E-f-hi 
:EPH002:  0.2946 -0.1280    0.2735 -0.0080    0.4699  0.0169    0.0267  0.0431
:VZZ002: EFG INSIDE SPHERE   2 =     3.508202      UP TO R =   2.00000




:POS003: ATOM   -3 X,Y,Z = 0.10802 0.10802 0.10802  MULT= 2  ZZ=  8.000  O 1       

       LMMAX 12
       LM=   0 0  1 0  2 0  3 0  3 3  4 0  4 3  5 0  5 3  6 0  6 3  6 6

:CHA003: TOTAL VALENCE CHARGE INSIDE SPHERE   3 =   4.8771    (RMT=  1.4000 )
:PCS003: PARTIAL CHARGES SPHERE =  3 S,P,D,F,PZ,PXY, D-Z2,D-XY,X2Y2,D-XZ,YZ 
:QTL003: 1.4282 3.4403 0.0073 0.0011 1.1259 2.3145 0.0000 0.0017 0.0016 0.0040 0.0000 0.0000
        Q-s-low E-s-low   Q-p-low E-p-low   Q-d-low E-d-low   Q-f-low E-f-low
:EPL003:  1.3823 -1.0675    0.0900 -0.5142    0.0020 -0.6360    0.0004 -0.7789
        Q-s-hi  E-s-hi    Q-p-hi  E-p-hi    Q-d-hi  E-d-hi    Q-f-hi  E-f-hi 
:EPH003:  0.0459 -0.0395    3.3504  0.0256    0.0053  0.1570    0.0007  0.1853
:VZZ003: EFG INSIDE SPHERE   3 =     2.336678      UP TO R =   1.40000

:CHA  : TOTAL VALENCE CHARGE INSIDE UNIT CELL =      42.000000

:SUM  : SUM OF EIGENVALUES =         -34.695763243


        1.ATOM      Cu1                   5 CORE STATES
:1S 001: 1S                -649.764881317 Ry
:2S 001: 2S                 -77.489405703 Ry
:2PP001: 2P*                -67.803335291 Ry
:2P 001: 2P                 -66.297435994 Ry
:3S 001: 3S                  -7.838338377 Ry

        2.ATOM      Ga1                   7 CORE STATES
:1S 002: 1S                -750.727570450 Ry
:2S 002: 2S                 -91.796174986 Ry
:2PP002: 2P*                -81.149554541 Ry
:2P 002: 2P                 -79.117016407 Ry
:3S 002: 3S                  -9.943111362 Ry
:3PP002: 3P*                 -6.504093817 Ry
:3P 002: 3P                  -6.238010823 Ry

        3.ATOM      O 1                   1 CORE STATES
       CORE-FORCE in mRy/a.u. = |F|      Fx             Fy             Fz
:FCO003:   3.ATOM     54.238085088      0.000000000      0.000000000     54.238085088

:1S 003: 1S                 -36.967062359 Ry
:CINT001 Core Integral Atom   1   11.998551
:CINT002 Core Integral Atom   2   17.993488
:CINT003 Core Integral Atom   3    1.999999

       DENSITY AT NUCLEUS
        JATOM        VALENCE       SEMI-CORE          CORE           TOTAL
:RTO001:   1        6.564643        0.000000    22630.571548    22637.136191
:RTO002:   2        9.622009        0.000000    27809.921756    27819.543765
:RTO003:   3       15.693093        0.000000      303.965472      319.658565
     
       CHARGES OF NEW CHARGE DENSITY
:NTO   : INTERSTITIAL CHARGE =     6.167833
:NTO001: CHARGE SPHERE  1    =    27.502496
:NTO002: CHARGE SPHERE  2    =    28.567557
:NTO003: CHARGE SPHERE  3    =     6.877065

:NEC01: NUCLEAR AND ELECTRONIC CHARGE     76.00000    75.99202
     
       CHARGES OF OLD CHARGE DENSITY
:OTO   : INTERSTITIAL CHARGE =     6.996548
:OTO001: CHARGE SPHERE  1    =    27.272080
:OTO002: CHARGE SPHERE  2    =    29.059618
:OTO003: CHARGE SPHERE  3    =     6.335877

:NEC02: NUCLEAR AND ELECTRONIC CHARGE     76.00000    76.00000
     
       CONVERGENCE TEST
:DTO001: DIFFERENCE IN SPHERE  1 =  0.5802104
:DTO002: DIFFERENCE IN SPHERE  2 =  0.3478109
:DTO003: DIFFERENCE IN SPHERE  3 =  0.6792826

:DIS  :  CHARGE DISTANCE       ( 0.6792826 for atom    3 spin 1)      0.5716466
:BIG check (qbig,qrms,qtot)    0.226D+00   0.415D+00   0.572D+00
 
******************************************************
* MULTISECANT MIXING VER6 RELEASE 6.0 OPTIONS        *
* Standard Mode with controls                        *
* Regularization       1.000E-06                     *
* Trust Region Control Active                        *
* Max Number of Memory Steps    8                    *
******************************************************
 
:PLANE:  INTERSTITIAL TOTAL      1.76228 DISTAN  2.871E+01 % 
:CHARG:  CLM CHARGE   /ATOM     75.91553 DISTAN  1.162E+00 % 
:REDuction and DMIX in Broyd:    0.8146    0.1629
 
 Step History DMIX, Red, Pred, Trust, FRMS, FABS
  2  3.5000E-02  1.0000E+00  1.0000E+00  1.0000E+00
  
:DIRM :  MEMORY  1/ 8 RESCALES   5.37
:MIX  :   PRATT  REGULARIZATION: 1.00E-06  GREED: 0.088  Expand 2.50  0.09                
     
       CHARGES OF MIXED CHARGE DENSITY
:CTO   : INTERSTITIAL CHARGE =     6.915155
:CTO001: CHARGE SPHERE  1    =    27.295143
:CTO002: CHARGE SPHERE  2    =    29.012907
:CTO003: CHARGE SPHERE  3    =     6.388398

:NEC03: NUCLEAR AND ELECTRONIC CHARGE     76.00000    76.00000

PW CHANGE     H    K    L       Current     Change     Residue
:PTO001:      0    0    0  6.74114178E-02 -2.416E-04 -2.421E-03
:PTO002:     -1   -1   -1 -2.52257709E-02  1.031E-04  1.341E-03
:PTO003:     -2   -2   -2  2.38660333E-03 -1.021E-03 -1.094E-02
:PTO004:     -1    0    0  8.96399393E-02  3.290E-03  3.564E-02
:PTO005:     -1   -1    0  8.51769943E-02 -7.797E-04 -8.705E-03
:PTO006:     -2   -1   -1 -3.47779157E-02 -3.305E-03 -3.584E-02
:PTO007:     -2   -2   -1 -7.76587941E-02 -1.196E-03 -1.254E-02
:PTO008:     -3   -3   -3  2.45483259E-02  9.291E-04  1.008E-02
:PTO009:     -3   -2   -2  4.67917940E-03  8.797E-04  9.729E-03
:PTO010:     -3   -3   -2  5.54936371E-02  2.969E-04  2.849E-03
:PTO011:     -1    0    1  5.35887354E-02  3.177E-04  2.842E-03
:PTO012:     -2   -1    0 -3.09383703E-02 -2.336E-04 -2.236E-03

:ENE  : ********** TOTAL ENERGY IN Ry =        -7499.58037879

       TOTAL FORCE IN mRy/a.u. = |F|     Fx             Fy             Fz     with/without FOR in case.in2
:FOR001:   1.ATOM          0.000          0.000          0.000          0.000 partial forces
:FOR002:   2.ATOM          0.000          0.000          0.000          0.000 partial forces
:FOR003:   3.ATOM        162.341          0.000          0.000       -162.341 partial forces
       TOTAL FORCE WITH RESPECT TO GLOBAL CARTESIAN COORDINATES:
:FCA001:   1.ATOM                         0.000          0.000          0.000 partial forces
:FCA002:   2.ATOM                         0.000          0.000          0.000 partial forces
:FCA003:   3.ATOM                         0.000          0.000       -162.341 partial forces
       TOTAL FORCE WITH RESPECT TO THE GLOBAL COORDINATE SYSTEM:
:FGL001:   1.ATOM                 0.000000000     0.000000000     0.000000000 partial forces
:FGL002:   2.ATOM                 0.000000000     0.000000000     0.000000000 partial forces
:FGL003:   3.ATOM              -162.341390228  -162.341390228  -162.341390228 partial forces


            ---------
:ITE003:  3. ITERATION
            ---------

:NATO :    3 INDEPENDENT AND    4 TOTAL ATOMS IN UNITCELL
       SUBSTANCE: CuGaO2 KoehlerB86                                           

       LATTICE                      = R   
:POT  : POTENTIAL OPTION EX_PBE EC_PBE VX_PBE VC_PBE
:LAT  : LATTICE CONSTANTS=  5.63135  5.63135 32.31415
:VOL  : UNIT CELL VOLUME =     295.82013
       MODE OF CALCULATION IS       = RELA
       NON-SPINPOLARIZED CALCULATION
:IFFT  : FFT-parameters:   90   90   90 Factor: 2.00
       ATOMNUMBER=  1 Cu1        VCOUL-ZERO =  0.32877E+00
:EFG001:                        EFG         =    -0.71919   *10**21  V / m**2
                               V20  TOT/SRF=    -0.62284     0.30224
                               V22  TOT/SRF=     0.00000     0.00000
                               V22M TOT/SRF=     0.00000     0.00000
                               V21  TOT/SRF=     0.00000     0.00000
                               V21M TOT/SRF=     0.00000     0.00000

              0.35960    0.00000    0.00000        0.35960    0.00000    0.00000
              0.00000    0.35960    0.00000        0.00000    0.35960    0.00000
              0.00000    0.00000   -0.71919        0.00000    0.00000   -0.71919

         MAIN DIRECTIONS OF THE EFG   1.0000  0.0000  0.0000
                                      0.0000  1.0000  0.0000
                                      0.0000  0.0000  1.0000
:ANG001:  ANGLE WITH OLD X-AXIS =         0.0

:ETA001:                         ASYMM. ETA =     0.00000


       ATOMNUMBER=  2 Ga1        VCOUL-ZERO =  0.14315E+00
:EFG002:                        EFG         =     0.33769   *10**21  V / m**2
                               V20  TOT/SRF=     0.29245    -0.12142
                               V22  TOT/SRF=     0.00000     0.00000
                               V22M TOT/SRF=     0.00000     0.00000
                               V21  TOT/SRF=     0.00000     0.00000
                               V21M TOT/SRF=     0.00000     0.00000

             -0.16884    0.00000    0.00000       -0.16884    0.00000    0.00000
              0.00000   -0.16884    0.00000        0.00000   -0.16884    0.00000
              0.00000    0.00000    0.33769        0.00000    0.00000    0.33769

         MAIN DIRECTIONS OF THE EFG   1.0000  0.0000  0.0000
                                      0.0000  1.0000  0.0000
                                      0.0000  0.0000  1.0000
:ANG002:  ANGLE WITH OLD X-AXIS =         0.0

:ETA002:                         ASYMM. ETA =     0.00000


       ATOMNUMBER=  3 O 1        VCOUL-ZERO =  0.55385E-01
:EFG003:                        EFG         =     0.61830   *10**21  V / m**2
                               V20  TOT/SRF=     0.53546     0.34026
                               V22  TOT/SRF=     0.00000     0.00000
                               V22M TOT/SRF=     0.00000     0.00000
                               V21  TOT/SRF=     0.00000     0.00000
                               V21M TOT/SRF=     0.00000     0.00000

             -0.30915    0.00000    0.00000       -0.30915    0.00000    0.00000
              0.00000   -0.30915    0.00000        0.00000   -0.30915    0.00000
              0.00000    0.00000    0.61830        0.00000    0.00000    0.61830

         MAIN DIRECTIONS OF THE EFG   1.0000  0.0000  0.0000
                                      0.0000  1.0000  0.0000
                                      0.0000  0.0000  1.0000
:ANG003:  ANGLE WITH OLD X-AXIS =         0.0

:ETA003:                         ASYMM. ETA =     0.00000


     HELLMANN-FEYNMAN-FORCE IN mRy/a.u. = |F|  Fx       Fy             Fz
:FHF001:   1.ATOM      0.000000000      0.000000000      0.000000000      0.000000000

     HELLMANN-FEYNMAN-FORCE IN mRy/a.u. = |F|  Fx       Fy             Fz
:FHF002:   2.ATOM      0.000000000      0.000000000      0.000000000      0.000000000

     HELLMANN-FEYNMAN-FORCE IN mRy/a.u. = |F|  Fx       Fy             Fz
:FHF003:   3.ATOM    224.926411893      0.000000000      0.000000000   -224.926411893

:FIT001: LUSE= 13 SIGMA OF V-XC FIT FOR ATOM  1  0.6884047E-02
:FIT001: LUSE= 13 SIGMA OF V-XC FIT FOR ATOM  1  0.6884047E-02
:FIT002: LUSE= 13 SIGMA OF V-XC FIT FOR ATOM  2  0.7986292E-02
:FIT002: LUSE= 13 SIGMA OF V-XC FIT FOR ATOM  2  0.7986292E-02
:FIT003: LUSE= 13 SIGMA OF V-XC FIT FOR ATOM  3  0.1086187E-03
:FIT003: LUSE= 13 SIGMA OF V-XC FIT FOR ATOM  3  0.1086187E-03
:DEN  : DENSITY INTEGRAL  =         -3225.84180565   (Ry)
       ELS_POTENTIAL_AT Z=0 and Z=0.5:   0.00000   0.00000
       ELS_POTENTIAL_AT Y=0 and Y=0.5:   0.00000   0.00000
:VZERO:v0,v0c,v0x  -0.81291   0.00000  -0.81291 v5,v5c,v5x  -0.81291   0.00000  -0.81291
:VZERY:v0,v0c,v0x  -0.81291   0.00000  -0.81291 v5,v5c,v5x  -0.81291   0.00000  -0.81291
:VZERX:v0,v0c,v0x  -2.24444  -1.09461  -1.14983 v5,v5c,v5x  -0.32631   0.16674  -0.49306

          ATOMIC SPHERE DEPENDENT PARAMETERS FOR ATOM  Cu1       
:e__0001: OVERALL ENERGY PARAMETER IS    0.1777
          OVERALL BASIS SET ON ATOM IS LAPW
:E1_0001: E( 1)=    0.1777
             APW+lo
:E1_0001: E( 1)=   -4.6699   E(BOTTOM)=   -4.737   E(TOP)=   -4.603  1  2   162
             LOCAL ORBITAL
:E2_0001: E( 2)=    0.2581   E(BOTTOM)=   -0.069   E(TOP)=    0.585  0  1   136
             APW+lo
:E0_0001: E( 0)=    0.1777
             APW+lo

          ATOMIC SPHERE DEPENDENT PARAMETERS FOR ATOM  Ga1       
:e__0002: OVERALL ENERGY PARAMETER IS    0.1777
          OVERALL BASIS SET ON ATOM IS LAPW
:E2_0002: E( 2)=   -0.5503   E(BOTTOM)=   -0.759   E(TOP)=   -0.341  0  1   154
             APW+lo
:E2_0002: E( 2)=    0.5777
             LOCAL ORBITAL
:E0_0002: E( 0)=    0.1777
             APW+lo
:E1_0002: E( 1)=    0.1777
             APW+lo

          ATOMIC SPHERE DEPENDENT PARAMETERS FOR ATOM  O 1       
:e__0003: OVERALL ENERGY PARAMETER IS    0.1777
          OVERALL BASIS SET ON ATOM IS LAPW
:E0_0003: E( 0)=   -1.5500   E(BOTTOM)=   -2.737   E(TOP)= -200.000  1 -1   238
             APW+lo
:E0_0003: E( 0)=    0.5777
             LOCAL ORBITAL
:E1_0003: E( 1)=    0.1777
             APW+lo

       K=   0.00000   0.00000   0.00000            1
:RKM  : MATRIX SIZE   991LOs:  36  RKM= 7.99  WEIGHT= 1.00  PGR:    
       EIGENVALUES ARE:
:EIG00001:      -4.6609314   -4.6525603   -4.6525603   -1.1382057   -1.0121232
:EIG00006:      -0.5397010   -0.5397010   -0.5266886   -0.5053700   -0.5053700
:EIG00011:      -0.1697556    0.0997713    0.1545762    0.1545762    0.1578732
:EIG00016:       0.1578732    0.1904962    0.2970839    0.2970839    0.3498545
:EIG00021:       0.3498545    0.4993131    0.8182882    0.8321410    1.3217009
:EIG00026:       1.3450862    1.3450862    1.6327870    1.7121896    1.7121896
:EIG00031:       1.7625914    1.7877697    1.7877697
       ********************************************************

:KPT   :      NUMBER OF K-POINTS:    32
       Insulator, EF-inconsistency corrected
:GAP  :    0.0859 Ry =     1.168 eV   (provided you have a proper k-mesh)
         Bandranges (emin - emax) and occupancy:
:BAN00011:  11   -0.173057   -0.093631  2.00000000
:BAN00012:  12   -0.139032    0.099771  2.00000000
:BAN00013:  13   -0.053352    0.154576  2.00000000
:BAN00014:  14    0.018564    0.154576  2.00000000
:BAN00015:  15    0.055565    0.183468  2.00000000
:BAN00016:  16    0.131506    0.191026  2.00000000
:BAN00017:  17    0.190496    0.299576  2.00000000
:BAN00018:  18    0.286229    0.323582  2.00000000
:BAN00019:  19    0.297030    0.339346  2.00000000
:BAN00020:  20    0.325297    0.353896  2.00000000
:BAN00021:  21    0.337691    0.413462  2.00000000
:BAN00022:  22    0.499313    0.834596  0.00000000
:BAN00023:  23    0.666902    0.864303  0.00000000
:BAN00024:  24    0.832141    1.098649  0.00000000
:BAN00025:  25    0.990471    1.321701  0.00000000
:BAN00026:  26    1.157990    1.348233  0.00000000
        Energy to separate low and high energystates:   -0.22306


:NOE  : NUMBER OF ELECTRONS          =  42.000

:FER  : F E R M I - ENERGY(TETRAH.M.)=   0.4134618187
:GMA  : POTENTIAL AND CHARGE CUT-OFF  12.00 Ry**.5




:POS001: ATOM   -1 X,Y,Z = 0.00000 0.00000 0.00000  MULT= 1  ZZ= 29.000  Cu1       

       LMMAX  7
       LM=   0 0  2 0  4 0  4 3  6 0  6 3  6 6

:CHA001: TOTAL VALENCE CHARGE INSIDE SPHERE   1 =  15.4397    (RMT=  2.0000 )
:PCS001: PARTIAL CHARGES SPHERE =  1 S,P,D,F,PZ,PXY, D-Z2,D-XY,X2Y2,D-XZ,YZ 
:QTL001: 0.2484 6.1363 9.0296 0.0189 2.1060 4.0303 0.0000 1.6221 3.6673 3.7402 0.0000 0.0000
        Q-s-low E-s-low   Q-p-low E-p-low   Q-d-low E-d-low   Q-f-low E-f-low
:EPL001:  0.0204 -0.9402    6.0054 -4.6421    0.0268 -0.9188    0.0035 -0.9691
        Q-s-hi  E-s-hi    Q-p-hi  E-p-hi    Q-d-hi  E-d-hi    Q-f-hi  E-f-hi 
:EPH001:  0.2279  0.1509    0.1309  0.0809    9.0029  0.2978    0.0153  0.0641
:VZZ001: EFG INSIDE SPHERE   1 =    -5.470527      UP TO R =   2.00000




:POS002: ATOM   -2 X,Y,Z = 0.50000 0.50000 0.50000  MULT= 1  ZZ= 31.000  Ga1       

       LMMAX  7
       LM=   0 0  2 0  4 0  4 3  6 0  6 3  6 6

:CHA002: TOTAL VALENCE CHARGE INSIDE SPHERE   2 =  10.6336    (RMT=  2.0000 )
:PCS002: PARTIAL CHARGES SPHERE =  2 S,P,D,F,PZ,PXY, D-Z2,D-XY,X2Y2,D-XZ,YZ 
:QTL002: 0.3676 0.3434 9.8813 0.0324 0.1011 0.2423 0.0000 1.9585 3.9542 3.9685 0.0000 0.0000
        Q-s-low E-s-low   Q-p-low E-p-low   Q-d-low E-d-low   Q-f-low E-f-low
:EPL002:  0.0493 -1.0405    0.0490 -0.9923    9.4840 -0.5175    0.0051 -0.9993
        Q-s-hi  E-s-hi    Q-p-hi  E-p-hi    Q-d-hi  E-d-hi    Q-f-hi  E-f-hi 
:EPH002:  0.3183 -0.1030    0.2943  0.0254    0.3973  0.0554    0.0274  0.0787
:VZZ002: EFG INSIDE SPHERE   2 =     3.602919      UP TO R =   2.00000




:POS003: ATOM   -3 X,Y,Z = 0.10802 0.10802 0.10802  MULT= 2  ZZ=  8.000  O 1       

       LMMAX 12
       LM=   0 0  1 0  2 0  3 0  3 3  4 0  4 3  5 0  5 3  6 0  6 3  6 6

:CHA003: TOTAL VALENCE CHARGE INSIDE SPHERE   3 =   4.7813    (RMT=  1.4000 )
:PCS003: PARTIAL CHARGES SPHERE =  3 S,P,D,F,PZ,PXY, D-Z2,D-XY,X2Y2,D-XZ,YZ 
:QTL003: 1.4179 3.3545 0.0075 0.0011 1.0987 2.2559 0.0000 0.0016 0.0016 0.0043 0.0000 0.0000
        Q-s-low E-s-low   Q-p-low E-p-low   Q-d-low E-d-low   Q-f-low E-f-low
:EPL003:  1.3674 -1.0283    0.0701 -0.5453    0.0019 -0.6636    0.0004 -0.8038
        Q-s-hi  E-s-hi    Q-p-hi  E-p-hi    Q-d-hi  E-d-hi    Q-f-hi  E-f-hi 
:EPH003:  0.0505 -0.0173    3.2844  0.0596    0.0056  0.1909    0.0007  0.2229
:VZZ003: EFG INSIDE SPHERE   3 =     2.169364      UP TO R =   1.40000

:CHA  : TOTAL VALENCE CHARGE INSIDE UNIT CELL =      42.000000

:SUM  : SUM OF EIGENVALUES =         -33.756977989


        1.ATOM      Cu1                   5 CORE STATES
:1S 001: 1S                -649.689949515 Ry
:2S 001: 2S                 -77.414862992 Ry
:2PP001: 2P*                -67.728206572 Ry
:2P 001: 2P                 -66.222371409 Ry
:3S 001: 3S                  -7.788923415 Ry

        2.ATOM      Ga1                   7 CORE STATES
:1S 002: 1S                -750.766768866 Ry
:2S 002: 2S                 -91.832212536 Ry
:2PP002: 2P*                -81.186022623 Ry
:2P 002: 2P                 -79.153430224 Ry
:3S 002: 3S                  -9.974097705 Ry
:3PP002: 3P*                 -6.534797276 Ry
:3P 002: 3P                  -6.268582589 Ry

        3.ATOM      O 1                   1 CORE STATES
       CORE-FORCE in mRy/a.u. = |F|      Fx             Fy             Fz
:FCO003:   3.ATOM     55.571989946      0.000000000      0.000000000     55.571989946

:1S 003: 1S                 -36.874853504 Ry
:CINT001 Core Integral Atom   1   11.998522
:CINT002 Core Integral Atom   2   17.993552
:CINT003 Core Integral Atom   3    1.999999

       DENSITY AT NUCLEUS
        JATOM        VALENCE       SEMI-CORE          CORE           TOTAL
:RTO001:   1        7.066704        0.000000    22629.913496    22636.980200
:RTO002:   2       10.471435        0.000000    27810.125244    27820.596679
:RTO003:   3       15.483086        0.000000      303.928589      319.411676
     
       CHARGES OF NEW CHARGE DENSITY
:NTO   : INTERSTITIAL CHARGE =     6.364104
:NTO001: CHARGE SPHERE  1    =    27.438255
:NTO002: CHARGE SPHERE  2    =    28.627126
:NTO003: CHARGE SPHERE  3    =     6.781283

:NEC01: NUCLEAR AND ELECTRONIC CHARGE     76.00000    75.99205
     
       CHARGES OF OLD CHARGE DENSITY
:OTO   : INTERSTITIAL CHARGE =     6.915155
:OTO001: CHARGE SPHERE  1    =    27.295143
:OTO002: CHARGE SPHERE  2    =    29.012907
:OTO003: CHARGE SPHERE  3    =     6.388398

:NEC02: NUCLEAR AND ELECTRONIC CHARGE     76.00000    76.00000
     
       CONVERGENCE TEST
:DTO001: DIFFERENCE IN SPHERE  1 =  0.3074229
:DTO002: DIFFERENCE IN SPHERE  2 =  0.2836727
:DTO003: DIFFERENCE IN SPHERE  3 =  0.4738039

:DIS  :  CHARGE DISTANCE       ( 0.4738039 for atom    3 spin 1)      0.3846758
:BIG check (qbig,qrms,qtot)    0.158D+00   0.279D+00   0.385D+00
 
******************************************************
* MULTISECANT MIXING VER6 RELEASE 6.0 OPTIONS        *
* Standard Mode with controls                        *
* Regularization       1.000E-06                     *
* Trust Region Control Active                        *
* Max Number of Memory Steps    8                    *
******************************************************
 
:PLANE:  INTERSTITIAL TOTAL      1.77702 DISTAN  2.461E+01 % 
:CHARG:  CLM CHARGE   /ATOM     75.92615 DISTAN  8.607E-01 % 
:REDuction and DMIX in Broyd:    0.9307    0.1861
 
 Step History DMIX, Red, Pred, Trust, FRMS, FABS
  2  3.5000E-02  1.0000E+00  1.0000E+00  1.0000E+00
  3  8.7500E-02  1.0000E+00  1.0000E+00  1.0000E+00
  
:NORMS:  Nuclear, Spectral, Froebius, Shanno-Pua   0.2661E+01  0.2653E+01  0.2653E+01  0.3234E+00
:INFO :  Number of Memory Steps    2 Skipping    0
:INFO :  SLambda=    2.6612405  Max    2.6612405

Eigenvalues, unscaled except for SY+YY
   #     SY Real        SY Imag          SS             YY         SY+YY Real      SY+YY Imag
   1   6.467055E-01   0.000000E+00   2.842346E-01   1.999979E+00   3.721017E+00   0.000000E+00
   2  -5.551115E-16   0.000000E+00  -1.387779E-16   2.114736E-05   2.215594E-05   0.000000E+00
 
:INFO :  Singular value   3.721E+00 Weight  1.0000E+00 Projections  -1.311E+02  1.907E+00
:INFO :  Singular value   2.216E-05 Weight  9.9192E-01 Projections   1.284E+02  1.835E+02
 
:DIRM :  MEMORY 2/8 RESCALE   5.05 RED 0.803 PRED 1.000 NEXT 0.712
:INFO :  Blimit    1.533E+00  1.003E+00  6.477E-01  2.599E+00
:DIRP :  |MSR1|= 9.577E-01 |PRATT|= 2.211E+00 ANGLE=   1.8 DEGREES
:DIRQ :  |MSR1|= 8.980E-01 |PRATT|= 1.961E+00 ANGLE=   8.5 DEGREES
:DIR  :  |MSR1|= 1.313E+00 |PRATT|= 2.955E+00 ANGLE=   6.1 DEGREES
:MIX  :   MSE1   REGULARIZATION: 2.00E-06  GREED: 0.097  Newton 1.00  0.44                
     
       CHARGES OF MIXED CHARGE DENSITY
:CTO   : INTERSTITIAL CHARGE =     6.652298
:CTO001: CHARGE SPHERE  1    =    27.378565
:CTO002: CHARGE SPHERE  2    =    28.838219
:CTO003: CHARGE SPHERE  3    =     6.565459

:NEC03: NUCLEAR AND ELECTRONIC CHARGE     76.00000    76.00000

PW CHANGE     H    K    L       Current     Change     Residue
:PTO001:      0    0    0  6.66148954E-02 -7.965E-04 -1.548E-03
:PTO002:     -1   -1   -1 -2.46581803E-02  5.676E-04  1.782E-03
:PTO003:     -2   -2   -2 -1.67003627E-03 -4.057E-03 -9.097E-03
:PTO004:     -1    0    0  1.02880145E-01  1.324E-02  3.069E-02
:PTO005:     -1   -1    0  8.16356574E-02 -3.541E-03 -8.150E-03
:PTO006:     -2   -1   -1 -4.82182615E-02 -1.344E-02 -3.093E-02
:PTO007:     -2   -2   -1 -8.20492095E-02 -4.390E-03 -9.670E-03
:PTO008:     -3   -3   -3  2.82496215E-02  3.701E-03  8.746E-03
:PTO009:     -3   -2   -2  8.36137195E-03  3.682E-03  8.931E-03
:PTO010:     -3   -3   -2  5.61622694E-02  6.686E-04  1.507E-03
:PTO011:     -1    0    1  5.40226034E-02  4.339E-04  8.978E-04
:PTO012:     -2   -1    0 -3.15524959E-02 -6.141E-04 -1.137E-03

:ENE  : ********** TOTAL ENERGY IN Ry =        -7499.50741754

       TOTAL FORCE IN mRy/a.u. = |F|     Fx             Fy             Fz     with/without FOR in case.in2
:FOR001:   1.ATOM          0.000          0.000          0.000          0.000 partial forces
:FOR002:   2.ATOM          0.000          0.000          0.000          0.000 partial forces
:FOR003:   3.ATOM        169.354          0.000          0.000       -169.354 partial forces
       TOTAL FORCE WITH RESPECT TO GLOBAL CARTESIAN COORDINATES:
:FCA001:   1.ATOM                         0.000          0.000          0.000 partial forces
:FCA002:   2.ATOM                         0.000          0.000          0.000 partial forces
:FCA003:   3.ATOM                         0.000          0.000       -169.354 partial forces
       TOTAL FORCE WITH RESPECT TO THE GLOBAL COORDINATE SYSTEM:
:FGL001:   1.ATOM                 0.000000000     0.000000000     0.000000000 partial forces
:FGL002:   2.ATOM                 0.000000000     0.000000000     0.000000000 partial forces
:FGL003:   3.ATOM              -169.354421947  -169.354421947  -169.354421947 partial forces


            ---------
:ITE004:  4. ITERATION
            ---------

:NATO :    3 INDEPENDENT AND    4 TOTAL ATOMS IN UNITCELL
       SUBSTANCE: CuGaO2 KoehlerB86                                           

       LATTICE                      = R   
:POT  : POTENTIAL OPTION EX_PBE EC_PBE VX_PBE VC_PBE
:LAT  : LATTICE CONSTANTS=  5.63135  5.63135 32.31415
:VOL  : UNIT CELL VOLUME =     295.82013
       MODE OF CALCULATION IS       = RELA
       NON-SPINPOLARIZED CALCULATION
:IFFT  : FFT-parameters:   90   90   90 Factor: 2.00
       ATOMNUMBER=  1 Cu1        VCOUL-ZERO =  0.33729E+00
:EFG001:                        EFG         =    -3.26285   *10**21  V / m**2
                               V20  TOT/SRF=    -2.82571     0.15720
                               V22  TOT/SRF=     0.00000     0.00000
                               V22M TOT/SRF=     0.00000     0.00000
                               V21  TOT/SRF=     0.00000     0.00000
                               V21M TOT/SRF=     0.00000     0.00000

              1.63142    0.00000    0.00000        1.63142    0.00000    0.00000
              0.00000    1.63142    0.00000        0.00000    1.63142    0.00000
              0.00000    0.00000   -3.26285        0.00000    0.00000   -3.26285

         MAIN DIRECTIONS OF THE EFG   1.0000  0.0000  0.0000
                                      0.0000  1.0000  0.0000
                                      0.0000  0.0000  1.0000
:ANG001:  ANGLE WITH OLD X-AXIS =         0.0

:ETA001:                         ASYMM. ETA =     0.00000


       ATOMNUMBER=  2 Ga1        VCOUL-ZERO =  0.10267E+00
:EFG002:                        EFG         =     1.82199   *10**21  V / m**2
                               V20  TOT/SRF=     1.57789    -0.07534
                               V22  TOT/SRF=     0.00000     0.00000
                               V22M TOT/SRF=     0.00000     0.00000
                               V21  TOT/SRF=     0.00000     0.00000
                               V21M TOT/SRF=     0.00000     0.00000

             -0.91099    0.00000    0.00000       -0.91099    0.00000    0.00000
              0.00000   -0.91099    0.00000        0.00000   -0.91099    0.00000
              0.00000    0.00000    1.82199        0.00000    0.00000    1.82199

         MAIN DIRECTIONS OF THE EFG   1.0000  0.0000  0.0000
                                      0.0000  1.0000  0.0000
                                      0.0000  0.0000  1.0000
:ANG002:  ANGLE WITH OLD X-AXIS =         0.0

:ETA002:                         ASYMM. ETA =     0.00000


       ATOMNUMBER=  3 O 1        VCOUL-ZERO =  0.15675E+00
:EFG003:                        EFG         =     1.43412   *10**21  V / m**2
                               V20  TOT/SRF=     1.24198     0.30044
                               V22  TOT/SRF=     0.00000     0.00000
                               V22M TOT/SRF=     0.00000     0.00000
                               V21  TOT/SRF=     0.00000     0.00000
                               V21M TOT/SRF=     0.00000     0.00000

             -0.71706    0.00000    0.00000       -0.71706    0.00000    0.00000
              0.00000   -0.71706    0.00000        0.00000   -0.71706    0.00000
              0.00000    0.00000    1.43412        0.00000    0.00000    1.43412

         MAIN DIRECTIONS OF THE EFG   1.0000  0.0000  0.0000
                                      0.0000  1.0000  0.0000
                                      0.0000  0.0000  1.0000
:ANG003:  ANGLE WITH OLD X-AXIS =         0.0

:ETA003:                         ASYMM. ETA =     0.00000


     HELLMANN-FEYNMAN-FORCE IN mRy/a.u. = |F|  Fx       Fy             Fz
:FHF001:   1.ATOM      0.000000000      0.000000000      0.000000000      0.000000000

     HELLMANN-FEYNMAN-FORCE IN mRy/a.u. = |F|  Fx       Fy             Fz
:FHF002:   2.ATOM      0.000000000      0.000000000      0.000000000      0.000000000

     HELLMANN-FEYNMAN-FORCE IN mRy/a.u. = |F|  Fx       Fy             Fz
:FHF003:   3.ATOM    220.533524097      0.000000000      0.000000000   -220.533524097

:FIT001: LUSE= 13 SIGMA OF V-XC FIT FOR ATOM  1  0.6976772E-02
:FIT001: LUSE= 13 SIGMA OF V-XC FIT FOR ATOM  1  0.6976772E-02
:FIT002: LUSE= 13 SIGMA OF V-XC FIT FOR ATOM  2  0.1371100E-01
:FIT002: LUSE= 13 SIGMA OF V-XC FIT FOR ATOM  2  0.1371100E-01
:FIT003: LUSE= 13 SIGMA OF V-XC FIT FOR ATOM  3  0.1111298E-03
:FIT003: LUSE= 13 SIGMA OF V-XC FIT FOR ATOM  3  0.1111298E-03
:DEN  : DENSITY INTEGRAL  =         -3230.61947321   (Ry)
       ELS_POTENTIAL_AT Z=0 and Z=0.5:   0.00000   0.00000
       ELS_POTENTIAL_AT Y=0 and Y=0.5:   0.00000   0.00000
:VZERO:v0,v0c,v0x  -0.79604   0.00000  -0.79604 v5,v5c,v5x  -0.79604   0.00000  -0.79604
:VZERY:v0,v0c,v0x  -0.79604   0.00000  -0.79604 v5,v5c,v5x  -0.79604   0.00000  -0.79604
:VZERX:v0,v0c,v0x  -2.13611  -0.97131  -1.16480 v5,v5c,v5x  -0.37548   0.05056  -0.42604

          ATOMIC SPHERE DEPENDENT PARAMETERS FOR ATOM  Cu1       
:e__0001: OVERALL ENERGY PARAMETER IS    0.2135
          OVERALL BASIS SET ON ATOM IS LAPW
:E1_0001: E( 1)=    0.2135
             APW+lo
:E1_0001: E( 1)=   -4.5245   E(BOTTOM)=   -4.594   E(TOP)=   -4.455  1  2   177
             LOCAL ORBITAL
:E2_0001: E( 2)=    0.3831   E(BOTTOM)=    0.037   E(TOP)=    0.729  0  1   129
             APW+lo
:E0_0001: E( 0)=    0.2135
             APW+lo

          ATOMIC SPHERE DEPENDENT PARAMETERS FOR ATOM  Ga1       
:e__0002: OVERALL ENERGY PARAMETER IS    0.2135
          OVERALL BASIS SET ON ATOM IS LAPW
:E2_0002: E( 2)=   -0.6405   E(BOTTOM)=   -0.844   E(TOP)=   -0.437  0  1   144
             APW+lo
:E2_0002: E( 2)=    0.6135
             LOCAL ORBITAL
:E0_0002: E( 0)=    0.2135
             APW+lo
:E1_0002: E( 1)=    0.2135
             APW+lo

          ATOMIC SPHERE DEPENDENT PARAMETERS FOR ATOM  O 1       
:e__0003: OVERALL ENERGY PARAMETER IS    0.2135
          OVERALL BASIS SET ON ATOM IS LAPW
:E0_0003: E( 0)=   -1.5500   E(BOTTOM)=   -2.573   E(TOP)= -200.000  1 -1   230
             APW+lo
:E0_0003: E( 0)=    0.6135
             LOCAL ORBITAL
:E1_0003: E( 1)=    0.2135
             APW+lo

       K=   0.00000   0.00000   0.00000            1
:RKM  : MATRIX SIZE   991LOs:  36  RKM= 7.99  WEIGHT= 1.00  PGR:    
       EIGENVALUES ARE:
:EIG00001:      -4.5124216   -4.5074897   -4.5074897   -1.0275170   -0.8766284
:EIG00006:      -0.6196269   -0.6196269   -0.6094865   -0.5961512   -0.5961512
:EIG00011:      -0.0866904    0.2333059    0.2446452    0.2782325    0.2782325
:EIG00016:       0.2937076    0.2937076    0.4123619    0.4123619    0.4809273
:EIG00021:       0.4809273    0.5856270    0.8455332    0.9153178    1.3371640
:EIG00026:       1.3371640    1.3460025    1.6626286    1.7222636    1.7222636
:EIG00031:       1.7575627    1.8229159    1.8229159    1.8936061
       ********************************************************

:KPT   :      NUMBER OF K-POINTS:    32
:GAP  : -99999.   Ry = -9999.    eV  ( metallic )
         Bandranges (emin - emax) and occupancy:
:BAN00011:  11   -0.110605   -0.001251  2.00000000
:BAN00012:  12   -0.043759    0.233306  2.00000000
:BAN00013:  13    0.041819    0.266146  2.00000000
:BAN00014:  14    0.118476    0.278232  2.00000000
:BAN00015:  15    0.175060    0.278232  2.00000000
:BAN00016:  16    0.250438    0.319882  2.00000000
:BAN00017:  17    0.293708    0.408845  2.00000000
:BAN00018:  18    0.397335    0.439486  2.00000000
:BAN00019:  19    0.412291    0.463003  2.00000000
:BAN00020:  20    0.449616    0.487495  2.00000000
:BAN00021:  21    0.459648    0.537294  2.00000000
:BAN00022:  22    0.585627    0.856685  0.00000000
:BAN00023:  23    0.790532    0.922438  0.00000000
:BAN00024:  24    0.895397    1.124216  0.00000000
:BAN00025:  25    1.049476    1.337164  0.00000000
:BAN00026:  26    1.202896    1.374610  0.00000000
        Energy to separate low and high energystates:   -0.16061


:NOE  : NUMBER OF ELECTRONS          =  42.000

:FER  : F E R M I - ENERGY(TETRAH.M.)=   0.5372836942
:GMA  : POTENTIAL AND CHARGE CUT-OFF  12.00 Ry**.5




:POS001: ATOM   -1 X,Y,Z = 0.00000 0.00000 0.00000  MULT= 1  ZZ= 29.000  Cu1       

       LMMAX  7
       LM=   0 0  2 0  4 0  4 3  6 0  6 3  6 6

:CHA001: TOTAL VALENCE CHARGE INSIDE SPHERE   1 =  15.2191    (RMT=  2.0000 )
:PCS001: PARTIAL CHARGES SPHERE =  1 S,P,D,F,PZ,PXY, D-Z2,D-XY,X2Y2,D-XZ,YZ 
:QTL001: 0.2975 6.1647 8.7321 0.0187 2.1158 4.0489 0.0000 1.4639 3.5822 3.6859 0.0000 0.0000
        Q-s-low E-s-low   Q-p-low E-p-low   Q-d-low E-d-low   Q-f-low E-f-low
:EPL001:  0.0209 -0.8525    6.0041 -4.4961    0.0242 -0.8454    0.0032 -0.8585
        Q-s-hi  E-s-hi    Q-p-hi  E-p-hi    Q-d-hi  E-d-hi    Q-f-hi  E-f-hi 
:EPH001:  0.2766  0.2459    0.1606  0.2104    8.7079  0.4145    0.0155  0.1904
:VZZ001: EFG INSIDE SPHERE   1 =    -2.240734      UP TO R =   2.00000




:POS002: ATOM   -2 X,Y,Z = 0.50000 0.50000 0.50000  MULT= 1  ZZ= 31.000  Ga1       

       LMMAX  7
       LM=   0 0  2 0  4 0  4 3  6 0  6 3  6 6

:CHA002: TOTAL VALENCE CHARGE INSIDE SPHERE   2 =  10.8563    (RMT=  2.0000 )
:PCS002: PARTIAL CHARGES SPHERE =  2 S,P,D,F,PZ,PXY, D-Z2,D-XY,X2Y2,D-XZ,YZ 
:QTL002: 0.4642 0.4342 9.9144 0.0347 0.1312 0.3030 0.0000 1.9639 3.9678 3.9827 0.0000 0.0000
        Q-s-low E-s-low   Q-p-low E-p-low   Q-d-low E-d-low   Q-f-low E-f-low
:EPL002:  0.0621 -0.9480    0.0583 -0.8831    9.6383 -0.6034    0.0052 -0.8769
        Q-s-hi  E-s-hi    Q-p-hi  E-p-hi    Q-d-hi  E-d-hi    Q-f-hi  E-f-hi 
:EPH002:  0.4021 -0.0205    0.3759  0.1380    0.2761  0.1830    0.0296  0.1978
:VZZ002: EFG INSIDE SPHERE   2 =     3.792077      UP TO R =   2.00000




:POS003: ATOM   -3 X,Y,Z = 0.10802 0.10802 0.10802  MULT= 2  ZZ=  8.000  O 1       

       LMMAX 12
       LM=   0 0  1 0  2 0  3 0  3 3  4 0  4 3  5 0  5 3  6 0  6 3  6 6

:CHA003: TOTAL VALENCE CHARGE INSIDE SPHERE   3 =   4.4434    (RMT=  1.4000 )
:PCS003: PARTIAL CHARGES SPHERE =  3 S,P,D,F,PZ,PXY, D-Z2,D-XY,X2Y2,D-XZ,YZ 
:QTL003: 1.3818 3.0516 0.0086 0.0011 1.0059 2.0457 0.0000 0.0015 0.0019 0.0052 0.0000 0.0000
        Q-s-low E-s-low   Q-p-low E-p-low   Q-d-low E-d-low   Q-f-low E-f-low
:EPL003:  1.3108 -0.8949    0.0371 -0.6468    0.0017 -0.7508    0.0004 -0.8800
        Q-s-hi  E-s-hi    Q-p-hi  E-p-hi    Q-d-hi  E-d-hi    Q-f-hi  E-f-hi 
:EPH003:  0.0710  0.0610    3.0144  0.1763    0.0069  0.2944    0.0007  0.3362
:VZZ003: EFG INSIDE SPHERE   3 =     1.307418      UP TO R =   1.40000

:CHA  : TOTAL VALENCE CHARGE INSIDE UNIT CELL =      42.000000

:SUM  : SUM OF EIGENVALUES =         -30.780176366


        1.ATOM      Cu1                   5 CORE STATES
:1S 001: 1S                -649.486009484 Ry
:2S 001: 2S                 -77.203926894 Ry
:2PP001: 2P*                -67.516837422 Ry
:2P 001: 2P                 -66.011048582 Ry
:3S 001: 3S                  -7.637226205 Ry

        2.ATOM      Ga1                   7 CORE STATES
:1S 002: 1S                -750.877606381 Ry
:2S 002: 2S                 -91.934720357 Ry
:2PP002: 2P*                -81.289412197 Ry
:2P 002: 2P                 -79.256704925 Ry
:3S 002: 3S                 -10.071707748 Ry
:3PP002: 3P*                 -6.631742870 Ry
:3P 002: 3P                  -6.365319713 Ry

        3.ATOM      O 1                   1 CORE STATES
       CORE-FORCE in mRy/a.u. = |F|      Fx             Fy             Fz
:FCO003:   3.ATOM     50.833009659      0.000000000      0.000000000     50.833009659

:1S 003: 1S                 -36.557710472 Ry
:CINT001 Core Integral Atom   1   11.998433
:CINT002 Core Integral Atom   2   17.993738
:CINT003 Core Integral Atom   3    1.999999

       DENSITY AT NUCLEUS
        JATOM        VALENCE       SEMI-CORE          CORE           TOTAL
:RTO001:   1        8.594821        0.000000    22628.338121    22636.932942
:RTO002:   2       13.734369        0.000000    27810.486000    27824.220369
:RTO003:   3       14.770002        0.000000      303.808454      318.578456
     
       CHARGES OF NEW CHARGE DENSITY
:NTO   : INTERSTITIAL CHARGE =     7.037897
:NTO001: CHARGE SPHERE  1    =    27.217546
:NTO002: CHARGE SPHERE  2    =    28.849994
:NTO003: CHARGE SPHERE  3    =     6.443357

:NEC01: NUCLEAR AND ELECTRONIC CHARGE     76.00000    75.99215
     
       CHARGES OF OLD CHARGE DENSITY
:OTO   : INTERSTITIAL CHARGE =     6.652298
:OTO001: CHARGE SPHERE  1    =    27.378565
:OTO002: CHARGE SPHERE  2    =    28.838219
:OTO003: CHARGE SPHERE  3    =     6.565459

:NEC02: NUCLEAR AND ELECTRONIC CHARGE     76.00000    76.00000
     
       CONVERGENCE TEST
:DTO001: DIFFERENCE IN SPHERE  1 =  0.7319689
:DTO002: DIFFERENCE IN SPHERE  2 =  0.1979381
:DTO003: DIFFERENCE IN SPHERE  3 =  0.3474691

:DIS  :  CHARGE DISTANCE       ( 0.7319689 for atom    1 spin 1)      0.4062113
:BIG check (qbig,qrms,qtot)    0.244D+00   0.319D+00   0.406D+00
 
******************************************************
* MULTISECANT MIXING VER6 RELEASE 6.0 OPTIONS        *
* Standard Mode with controls                        *
* Regularization       1.000E-06                     *
* Trust Region Control Active                        *
* Max Number of Memory Steps    8                    *
******************************************************
 
:PLANE:  INTERSTITIAL TOTAL      1.84364 DISTAN  1.048E+01 % 
:CHARG:  CLM CHARGE   /ATOM     75.95908 DISTAN  7.585E-01 % 
:REDuction and DMIX in Broyd:    0.9162    0.1832
 
 Step History DMIX, Red, Pred, Trust, FRMS, FABS
  2  3.5000E-02  1.0000E+00  1.0000E+00  1.0000E+00
  3  8.7500E-02  8.0299E-01  1.0000E+00  1.0000E+00
  4  9.7162E-02  1.0000E+00  7.1237E-01  2.5994E+00
  
:NORMS:  Nuclear, Spectral, Froebius, Shanno-Pua   0.2328E+01  0.2331E+01  0.2331E+01  0.3623E+00
:INFO :  Number of Memory Steps    3 Skipping    0
:INFO :  SLambda=    2.3308237  Max    2.3308237

Eigenvalues, unscaled except for SY+YY
   #     SY Real        SY Imag          SS             YY         SY+YY Real      SY+YY Imag
   1   1.086667E+00   0.000000E+00   5.520808E-01   2.999311E+00   5.532110E+00   0.000000E+00
   2  -2.021550E-16   0.000000E+00   1.222987E-16   1.296882E-06   1.372496E-06   0.000000E+00
   3   3.557607E-04   0.000000E+00   1.576757E-04   6.877195E-04   1.547717E-03   0.000000E+00
 
:INFO :  Singular value   5.532E+00 Weight  1.0000E+00 Projections  -1.202E+01 -1.015E-01
:INFO :  Singular value   1.548E-03 Weight  1.0000E+00 Projections   8.200E+01 -6.909E+01
:INFO :  Singular value   1.372E-06 Weight  1.7314E-01 Projections  -6.934E+01  8.308E+01
 
:DIRM :  MEMORY 3/8 RESCALE   5.81 RED 0.642 PRED 0.712 NEXT 0.424
:INFO :  Blimit    2.073E+00  1.001E+00  7.874E-01  3.153E+00
:DIRP :  |MSR1|= 6.950E-01 |PRATT|= 1.123E+00 ANGLE=  12.3 DEGREES
:DIRQ :  |MSR1|= 6.767E-01 |PRATT|= 1.728E+00 ANGLE=  26.7 DEGREES
:DIR  :  |MSR1|= 9.700E-01 |PRATT|= 2.061E+00 ANGLE=  25.3 DEGREES
:MIX  :   MSE1   REGULARIZATION: 3.00E-06  GREED: 0.118  Newton 1.00  0.47                
     
       CHARGES OF MIXED CHARGE DENSITY
:CTO   : INTERSTITIAL CHARGE =     6.795905
:CTO001: CHARGE SPHERE  1    =    27.367854
:CTO002: CHARGE SPHERE  2    =    28.816472
:CTO003: CHARGE SPHERE  3    =     6.509885

:NEC03: NUCLEAR AND ELECTRONIC CHARGE     76.00000    76.00000

PW CHANGE     H    K    L       Current     Change     Residue
:PTO001:      0    0    0  6.69518632E-02  3.370E-04  1.338E-03
:PTO002:     -1   -1   -1 -2.37810198E-02  8.772E-04  2.755E-03
:PTO003:     -2   -2   -2 -3.48284608E-03 -1.813E-03 -2.115E-03
:PTO004:     -1    0    0  1.09353137E-01  6.473E-03  1.072E-02
:PTO005:     -1   -1    0  7.81091077E-02 -3.527E-03 -5.393E-03
:PTO006:     -2   -1   -1 -5.56485630E-02 -7.430E-03 -1.151E-02
:PTO007:     -2   -2   -1 -8.24739614E-02 -4.248E-04  5.386E-04
:PTO008:     -3   -3   -3  2.99740916E-02  1.724E-03  3.374E-03
:PTO009:     -3   -2   -2  1.08965889E-02  2.535E-03  5.282E-03
:PTO010:     -3   -3   -2  5.41720219E-02 -1.990E-03 -3.067E-03
:PTO011:     -1    0    1  5.08031635E-02 -3.219E-03 -5.110E-03
:PTO012:     -2   -1    0 -3.02609690E-02  1.292E-03  2.763E-03

:ENE  : ********** TOTAL ENERGY IN Ry =        -7499.46116346

       TOTAL FORCE IN mRy/a.u. = |F|     Fx             Fy             Fz     with/without FOR in case.in2
:FOR001:   1.ATOM          0.000          0.000          0.000          0.000 partial forces
:FOR002:   2.ATOM          0.000          0.000          0.000          0.000 partial forces
:FOR003:   3.ATOM        169.701          0.000          0.000       -169.701 partial forces
       TOTAL FORCE WITH RESPECT TO GLOBAL CARTESIAN COORDINATES:
:FCA001:   1.ATOM                         0.000          0.000          0.000 partial forces
:FCA002:   2.ATOM                         0.000          0.000          0.000 partial forces
:FCA003:   3.ATOM                         0.000          0.000       -169.701 partial forces
       TOTAL FORCE WITH RESPECT TO THE GLOBAL COORDINATE SYSTEM:
:FGL001:   1.ATOM                 0.000000000     0.000000000     0.000000000 partial forces
:FGL002:   2.ATOM                 0.000000000     0.000000000     0.000000000 partial forces
:FGL003:   3.ATOM              -169.700514438  -169.700514438  -169.700514438 partial forces


            ---------
:ITE005:  5. ITERATION
            ---------

:NATO :    3 INDEPENDENT AND    4 TOTAL ATOMS IN UNITCELL
       SUBSTANCE: CuGaO2 KoehlerB86                                           

       LATTICE                      = R   
:POT  : POTENTIAL OPTION EX_PBE EC_PBE VX_PBE VC_PBE
:LAT  : LATTICE CONSTANTS=  5.63135  5.63135 32.31415
:VOL  : UNIT CELL VOLUME =     295.82013
       MODE OF CALCULATION IS       = RELA
       NON-SPINPOLARIZED CALCULATION
:IFFT  : FFT-parameters:   90   90   90 Factor: 2.00
       ATOMNUMBER=  1 Cu1        VCOUL-ZERO =  0.34716E+00
:EFG001:                        EFG         =    -4.66238   *10**21  V / m**2
                               V20  TOT/SRF=    -4.03774     0.20451
                               V22  TOT/SRF=     0.00000     0.00000
                               V22M TOT/SRF=     0.00000     0.00000
                               V21  TOT/SRF=     0.00000     0.00000
                               V21M TOT/SRF=     0.00000     0.00000

              2.33119    0.00000    0.00000        2.33119    0.00000    0.00000
              0.00000    2.33119    0.00000        0.00000    2.33119    0.00000
              0.00000    0.00000   -4.66238        0.00000    0.00000   -4.66238

         MAIN DIRECTIONS OF THE EFG   1.0000  0.0000  0.0000
                                      0.0000  1.0000  0.0000
                                      0.0000  0.0000  1.0000
:ANG001:  ANGLE WITH OLD X-AXIS =         0.0

:ETA001:                         ASYMM. ETA =     0.00000


       ATOMNUMBER=  2 Ga1        VCOUL-ZERO =  0.10957E+00
:EFG002:                        EFG         =     3.49444   *10**21  V / m**2
                               V20  TOT/SRF=     3.02627    -0.05449
                               V22  TOT/SRF=     0.00000     0.00000
                               V22M TOT/SRF=     0.00000     0.00000
                               V21  TOT/SRF=     0.00000     0.00000
                               V21M TOT/SRF=     0.00000     0.00000

             -1.74722    0.00000    0.00000       -1.74722    0.00000    0.00000
              0.00000   -1.74722    0.00000        0.00000   -1.74722    0.00000
              0.00000    0.00000    3.49444        0.00000    0.00000    3.49444

         MAIN DIRECTIONS OF THE EFG   1.0000  0.0000  0.0000
                                      0.0000  1.0000  0.0000
                                      0.0000  0.0000  1.0000
:ANG002:  ANGLE WITH OLD X-AXIS =         0.0

:ETA002:                         ASYMM. ETA =     0.00000


       ATOMNUMBER=  3 O 1        VCOUL-ZERO =  0.15621E+00
:EFG003:                        EFG         =     1.63817   *10**21  V / m**2
                               V20  TOT/SRF=     1.41869     0.31786
                               V22  TOT/SRF=     0.00000     0.00000
                               V22M TOT/SRF=     0.00000     0.00000
                               V21  TOT/SRF=     0.00000     0.00000
                               V21M TOT/SRF=     0.00000     0.00000

             -0.81908    0.00000    0.00000       -0.81908    0.00000    0.00000
              0.00000   -0.81908    0.00000        0.00000   -0.81908    0.00000
              0.00000    0.00000    1.63817        0.00000    0.00000    1.63817

         MAIN DIRECTIONS OF THE EFG   1.0000  0.0000  0.0000
                                      0.0000  1.0000  0.0000
                                      0.0000  0.0000  1.0000
:ANG003:  ANGLE WITH OLD X-AXIS =         0.0

:ETA003:                         ASYMM. ETA =     0.00000


     HELLMANN-FEYNMAN-FORCE IN mRy/a.u. = |F|  Fx       Fy             Fz
:FHF001:   1.ATOM      0.000000000      0.000000000      0.000000000      0.000000000

     HELLMANN-FEYNMAN-FORCE IN mRy/a.u. = |F|  Fx       Fy             Fz
:FHF002:   2.ATOM      0.000000000      0.000000000      0.000000000      0.000000000

     HELLMANN-FEYNMAN-FORCE IN mRy/a.u. = |F|  Fx       Fy             Fz
:FHF003:   3.ATOM     32.093290063      0.000000000      0.000000000    -32.093290063

:FIT001: LUSE= 13 SIGMA OF V-XC FIT FOR ATOM  1  0.7523527E-02
:FIT001: LUSE= 13 SIGMA OF V-XC FIT FOR ATOM  1  0.7523527E-02
:FIT002: LUSE= 13 SIGMA OF V-XC FIT FOR ATOM  2  0.2007236E-01
:FIT002: LUSE= 13 SIGMA OF V-XC FIT FOR ATOM  2  0.2007236E-01
:FIT003: LUSE= 13 SIGMA OF V-XC FIT FOR ATOM  3  0.1025194E-03
:FIT003: LUSE= 13 SIGMA OF V-XC FIT FOR ATOM  3  0.1025194E-03
:DEN  : DENSITY INTEGRAL  =         -3227.78884259   (Ry)
       ELS_POTENTIAL_AT Z=0 and Z=0.5:   0.00000   0.00000
       ELS_POTENTIAL_AT Y=0 and Y=0.5:   0.00000   0.00000
:VZERO:v0,v0c,v0x  -0.79466   0.00000  -0.79466 v5,v5c,v5x  -0.79466   0.00000  -0.79466
:VZERY:v0,v0c,v0x  -0.79466   0.00000  -0.79466 v5,v5c,v5x  -0.79466   0.00000  -0.79466
:VZERX:v0,v0c,v0x  -2.18849  -1.02004  -1.16845 v5,v5c,v5x  -0.30635   0.08266  -0.38901

          ATOMIC SPHERE DEPENDENT PARAMETERS FOR ATOM  Cu1       
:e__0001: OVERALL ENERGY PARAMETER IS    0.3373
          OVERALL BASIS SET ON ATOM IS LAPW
:E1_0001: E( 1)=    0.3373
             APW+lo
:E1_0001: E( 1)=   -4.6387   E(BOTTOM)=   -4.705   E(TOP)=   -4.572  1  2   170
             LOCAL ORBITAL
:E2_0001: E( 2)=    0.2893   E(BOTTOM)=   -0.037   E(TOP)=    0.615  0  1   133
             APW+lo
:E0_0001: E( 0)=    0.3373
             APW+lo

          ATOMIC SPHERE DEPENDENT PARAMETERS FOR ATOM  Ga1       
:e__0002: OVERALL ENERGY PARAMETER IS    0.3373
          OVERALL BASIS SET ON ATOM IS LAPW
:E2_0002: E( 2)=   -0.5875   E(BOTTOM)=   -0.796   E(TOP)=   -0.379  0  1   147
             APW+lo
:E2_0002: E( 2)=    0.7373
             LOCAL ORBITAL
:E0_0002: E( 0)=    0.3373
             APW+lo
:E1_0002: E( 1)=    0.3373
             APW+lo

          ATOMIC SPHERE DEPENDENT PARAMETERS FOR ATOM  O 1       
:e__0003: OVERALL ENERGY PARAMETER IS    0.3373
          OVERALL BASIS SET ON ATOM IS LAPW
:E0_0003: E( 0)=   -1.5500   E(BOTTOM)=   -2.591   E(TOP)= -200.000  1 -1   235
             APW+lo
:E0_0003: E( 0)=    0.7373
             LOCAL ORBITAL
:E1_0003: E( 1)=    0.3373
             APW+lo

       K=   0.00000   0.00000   0.00000            1
:RKM  : MATRIX SIZE   991LOs:  36  RKM= 7.99  WEIGHT= 1.00  PGR:    
       EIGENVALUES ARE:
:EIG00001:      -4.6336326   -4.6193763   -4.6193763   -1.0405266   -0.8964272
:EIG00006:      -0.5683665   -0.5683665   -0.5602228   -0.5431428   -0.5431428
:EIG00011:      -0.1006007    0.2095990    0.2133276    0.2436701    0.2436701
:EIG00016:       0.2729539    0.2729539    0.3275885    0.3275885    0.4029019
:EIG00021:       0.4029019    0.5415154    0.8485102    0.8930241    1.3489679
:EIG00026:       1.3491484    1.3491484    1.6647890    1.7280443    1.7280443
:EIG00031:       1.7708124    1.8140702    1.8140702    1.9076804
       ********************************************************

:KPT   :      NUMBER OF K-POINTS:    32
       Insulator, EF-inconsistency corrected
:GAP  :    0.0875 Ry =     1.190 eV   (provided you have a proper k-mesh)
         Bandranges (emin - emax) and occupancy:
:BAN00011:  11   -0.115745   -0.013814  2.00000000
:BAN00012:  12   -0.060328    0.209599  2.00000000
:BAN00013:  13    0.029833    0.216475  2.00000000
:BAN00014:  14    0.101472    0.243670  2.00000000
:BAN00015:  15    0.156937    0.243670  2.00000000
:BAN00016:  16    0.220977    0.293552  2.00000000
:BAN00017:  17    0.272954    0.329500  2.00000000
:BAN00018:  18    0.317288    0.359932  2.00000000
:BAN00019:  19    0.327538    0.371191  2.00000000
:BAN00020:  20    0.365012    0.413003  2.00000000
:BAN00021:  21    0.374150    0.454048  2.00000000
:BAN00022:  22    0.541515    0.849910  0.00000000
:BAN00023:  23    0.734847    0.917633  0.00000000
:BAN00024:  24    0.893024    1.126865  0.00000000
:BAN00025:  25    1.029885    1.348968  0.00000000
:BAN00026:  26    1.198626    1.377532  0.00000000
        Energy to separate low and high energystates:   -0.16574


:NOE  : NUMBER OF ELECTRONS          =  42.000

:FER  : F E R M I - ENERGY(TETRAH.M.)=   0.4540476369
:GMA  : POTENTIAL AND CHARGE CUT-OFF  12.00 Ry**.5




:POS001: ATOM   -1 X,Y,Z = 0.00000 0.00000 0.00000  MULT= 1  ZZ= 29.000  Cu1       

       LMMAX  7
       LM=   0 0  2 0  4 0  4 3  6 0  6 3  6 6

:CHA001: TOTAL VALENCE CHARGE INSIDE SPHERE   1 =  15.4750    (RMT=  2.0000 )
:PCS001: PARTIAL CHARGES SPHERE =  1 S,P,D,F,PZ,PXY, D-Z2,D-XY,X2Y2,D-XZ,YZ 
:QTL001: 0.2765 6.1525 9.0212 0.0187 2.1153 4.0371 0.0000 1.6201 3.6613 3.7398 0.0000 0.0000
        Q-s-low E-s-low   Q-p-low E-p-low   Q-d-low E-d-low   Q-f-low E-f-low
:EPL001:  0.0215 -0.8602    6.0060 -4.6103    0.0269 -0.8469    0.0034 -0.8725
        Q-s-hi  E-s-hi    Q-p-hi  E-p-hi    Q-d-hi  E-d-hi    Q-f-hi  E-f-hi 
:EPH001:  0.2550  0.2118    0.1465  0.1715    8.9943  0.3278    0.0153  0.1646
:VZZ001: EFG INSIDE SPHERE   1 =    -7.689445      UP TO R =   2.00000




:POS002: ATOM   -2 X,Y,Z = 0.50000 0.50000 0.50000  MULT= 1  ZZ= 31.000  Ga1       

       LMMAX  7
       LM=   0 0  2 0  4 0  4 3  6 0  6 3  6 6

:CHA002: TOTAL VALENCE CHARGE INSIDE SPHERE   2 =  10.7908    (RMT=  2.0000 )
:PCS002: PARTIAL CHARGES SPHERE =  2 S,P,D,F,PZ,PXY, D-Z2,D-XY,X2Y2,D-XZ,YZ 
:QTL002: 0.4383 0.4105 9.8991 0.0342 0.1241 0.2865 0.0000 1.9610 3.9615 3.9767 0.0000 0.0000
        Q-s-low E-s-low   Q-p-low E-p-low   Q-d-low E-d-low   Q-f-low E-f-low
:EPL002:  0.0589 -0.9580    0.0559 -0.8960    9.5876 -0.5515    0.0052 -0.8932
        Q-s-hi  E-s-hi    Q-p-hi  E-p-hi    Q-d-hi  E-d-hi    Q-f-hi  E-f-hi 
:EPH002:  0.3794 -0.0357    0.3546  0.1200    0.3115  0.1614    0.0290  0.1787
:VZZ002: EFG INSIDE SPHERE   2 =     3.591479      UP TO R =   2.00000




:POS003: ATOM   -3 X,Y,Z = 0.10802 0.10802 0.10802  MULT= 2  ZZ=  8.000  O 1       

       LMMAX 12
       LM=   0 0  1 0  2 0  3 0  3 3  4 0  4 3  5 0  5 3  6 0  6 3  6 6

:CHA003: TOTAL VALENCE CHARGE INSIDE SPHERE   3 =   4.5042    (RMT=  1.4000 )
:PCS003: PARTIAL CHARGES SPHERE =  3 S,P,D,F,PZ,PXY, D-Z2,D-XY,X2Y2,D-XZ,YZ 
:QTL003: 1.3883 3.1067 0.0079 0.0011 1.0189 2.0878 0.0000 0.0016 0.0018 0.0045 0.0000 0.0000
        Q-s-low E-s-low   Q-p-low E-p-low   Q-d-low E-d-low   Q-f-low E-f-low
:EPL003:  1.3225 -0.9139    0.0456 -0.5849    0.0018 -0.6917    0.0004 -0.8236
        Q-s-hi  E-s-hi    Q-p-hi  E-p-hi    Q-d-hi  E-d-hi    Q-f-hi  E-f-hi 
:EPH003:  0.0657  0.0542    3.0611  0.1592    0.0061  0.2289    0.0007  0.2636
:VZZ003: EFG INSIDE SPHERE   3 =     1.794111      UP TO R =   1.40000

:CHA  : TOTAL VALENCE CHARGE INSIDE UNIT CELL =      42.000000

:SUM  : SUM OF EIGENVALUES =         -32.039953977


        1.ATOM      Cu1                   5 CORE STATES
:1S 001: 1S                -649.769384578 Ry
:2S 001: 2S                 -77.453831063 Ry
:2PP001: 2P*                -67.773416314 Ry
:2P 001: 2P                 -66.266889361 Ry
:3S 001: 3S                  -7.758102058 Ry

        2.ATOM      Ga1                   7 CORE STATES
:1S 002: 1S                -750.756466032 Ry
:2S 002: 2S                 -91.824143381 Ry
:2PP002: 2P*                -81.176462848 Ry
:2P 002: 2P                 -79.144040953 Ry
:3S 002: 3S                 -10.010295771 Ry
:3PP002: 3P*                 -6.571697164 Ry
:3P 002: 3P                  -6.306279736 Ry

        3.ATOM      O 1                   1 CORE STATES
       CORE-FORCE in mRy/a.u. = |F|      Fx             Fy             Fz
:FCO003:   3.ATOM      1.235665393      0.000000000      0.000000000      1.235665393

:1S 003: 1S                 -36.638853175 Ry
:CINT001 Core Integral Atom   1   11.998526
:CINT002 Core Integral Atom   2   17.993581
:CINT003 Core Integral Atom   3    1.999999

       DENSITY AT NUCLEUS
        JATOM        VALENCE       SEMI-CORE          CORE           TOTAL
:RTO001:   1        7.895926        0.000000    22631.675978    22639.571904
:RTO002:   2       12.849712        0.000000    27809.109153    27821.958865
:RTO003:   3       14.936353        0.000000      303.889056      318.825408
     
       CHARGES OF NEW CHARGE DENSITY
:NTO   : INTERSTITIAL CHARGE =     6.725737
:NTO001: CHARGE SPHERE  1    =    27.473549
:NTO002: CHARGE SPHERE  2    =    28.784407
:NTO003: CHARGE SPHERE  3    =     6.504197

:NEC01: NUCLEAR AND ELECTRONIC CHARGE     76.00000    75.99209
     
       CHARGES OF OLD CHARGE DENSITY
:OTO   : INTERSTITIAL CHARGE =     6.795905
:OTO001: CHARGE SPHERE  1    =    27.367854
:OTO002: CHARGE SPHERE  2    =    28.816472
:OTO003: CHARGE SPHERE  3    =     6.509885

:NEC02: NUCLEAR AND ELECTRONIC CHARGE     76.00000    76.00000
     
       CONVERGENCE TEST
:DTO001: DIFFERENCE IN SPHERE  1 =  0.3725561
:DTO002: DIFFERENCE IN SPHERE  2 =  0.1373258
:DTO003: DIFFERENCE IN SPHERE  3 =  0.1903441

:DIS  :  CHARGE DISTANCE       ( 0.3725561 for atom    1 spin 1)      0.2226425
:BIG check (qbig,qrms,qtot)    0.124D+00   0.170D+00   0.223D+00
 
******************************************************
* MULTISECANT MIXING VER6 RELEASE 6.0 OPTIONS        *
* Standard Mode with controls                        *
* Regularization       1.000E-06                     *
* Trust Region Control Active                        *
* Max Number of Memory Steps    8                    *
******************************************************
 
:PLANE:  INTERSTITIAL TOTAL      1.87096 DISTAN  4.162E+00 % 
:CHARG:  CLM CHARGE   /ATOM     75.93022 DISTAN  3.644E-01 % 
 
 Step History DMIX, Red, Pred, Trust, FRMS, FABS
  2  3.5000E-02  1.0000E+00  1.0000E+00  1.0000E+00
  3  8.7500E-02  8.0299E-01  1.0000E+00  1.0000E+00
  4  9.7162E-02  6.4198E-01  7.1237E-01  2.5994E+00
  5  1.1812E-01  1.0000E+00  4.2416E-01  3.1532E+00
  
:NORMS:  Nuclear, Spectral, Froebius, Shanno-Pua   0.1802E+01  0.1400E+01  0.1578E+01  0.5999E+00
:INFO :  Number of Memory Steps    4 Skipping    0
:INFO :  SLambda=    1.8017891  Max    1.8017891

Eigenvalues, unscaled except for SY+YY
[...]
:PTO005:     -1   -1    0  7.66959803E-02 -9.289E-10  5.797E-10
:PTO006:     -2   -1   -1 -6.09615428E-02  5.066E-09  1.146E-08
:PTO007:     -2   -2   -1 -8.30714722E-02  8.079E-09  1.247E-08
:PTO008:     -3   -3   -3  3.19441484E-02  5.816E-10  6.726E-10
:PTO009:     -3   -2   -2  1.34040504E-02  3.018E-09  3.982E-09
:PTO010:     -3   -3   -2  5.38787940E-02 -1.090E-09 -2.680E-09
:PTO011:     -1    0    1  5.04535731E-02 -4.540E-09 -7.013E-09
:PTO012:     -2   -1    0 -2.91304718E-02  5.292E-09  9.382E-09

:ENE  : ********** TOTAL ENERGY IN Ry =        -7499.43447754

       TOTAL FORCE IN mRy/a.u. = |F|     Fx             Fy             Fz     with/without FOR in case.in2
:FOR001:   1.ATOM          0.000          0.000          0.000          0.000 partial forces
:FOR002:   2.ATOM          0.000          0.000          0.000          0.000 partial forces
:FOR003:   3.ATOM          8.869          0.000          0.000         -8.869 partial forces
       TOTAL FORCE WITH RESPECT TO GLOBAL CARTESIAN COORDINATES:
:FCA001:   1.ATOM                         0.000          0.000          0.000 partial forces
:FCA002:   2.ATOM                         0.000          0.000          0.000 partial forces
:FCA003:   3.ATOM                         0.000          0.000         -8.869 partial forces
       TOTAL FORCE WITH RESPECT TO THE GLOBAL COORDINATE SYSTEM:
:FGL001:   1.ATOM                 0.000000000     0.000000000     0.000000000 partial forces
:FGL002:   2.ATOM                 0.000000000     0.000000000     0.000000000 partial forces
:FGL003:   3.ATOM                -8.868807005    -8.868807005    -8.868807005 partial forces


            ---------
:ITE022: 22. ITERATION
            ---------

:NATO :    3 INDEPENDENT AND    4 TOTAL ATOMS IN UNITCELL
       SUBSTANCE: CuGaO2 KoehlerB86                                           

       LATTICE                      = R   
:POT  : POTENTIAL OPTION EX_PBE EC_PBE VX_PBE VC_PBE
:LAT  : LATTICE CONSTANTS=  5.63135  5.63135 32.31415
:VOL  : UNIT CELL VOLUME =     295.82013
       MODE OF CALCULATION IS       = RELA
       NON-SPINPOLARIZED CALCULATION
:IFFT  : FFT-parameters:   90   90   90 Factor: 2.00
       ATOMNUMBER=  1 Cu1        VCOUL-ZERO =  0.34750E+00
:EFG001:                        EFG         =    -5.75116   *10**21  V / m**2
                               V20  TOT/SRF=    -4.98065     0.18257
                               V22  TOT/SRF=     0.00000     0.00000
                               V22M TOT/SRF=     0.00000     0.00000
                               V21  TOT/SRF=     0.00000     0.00000
                               V21M TOT/SRF=     0.00000     0.00000

              2.87558    0.00000    0.00000        2.87558    0.00000    0.00000
              0.00000    2.87558    0.00000        0.00000    2.87558    0.00000
              0.00000    0.00000   -5.75116        0.00000    0.00000   -5.75116

         MAIN DIRECTIONS OF THE EFG   1.0000  0.0000  0.0000
                                      0.0000  1.0000  0.0000
                                      0.0000  0.0000  1.0000
:ANG001:  ANGLE WITH OLD X-AXIS =         0.0

:ETA001:                         ASYMM. ETA =     0.00000


       ATOMNUMBER=  2 Ga1        VCOUL-ZERO =  0.10896E+00
:EFG002:                        EFG         =     3.52695   *10**21  V / m**2
                               V20  TOT/SRF=     3.05443    -0.04540
                               V22  TOT/SRF=     0.00000     0.00000
                               V22M TOT/SRF=     0.00000     0.00000
                               V21  TOT/SRF=     0.00000     0.00000
                               V21M TOT/SRF=     0.00000     0.00000

             -1.76348    0.00000    0.00000       -1.76348    0.00000    0.00000
              0.00000   -1.76348    0.00000        0.00000   -1.76348    0.00000
              0.00000    0.00000    3.52695        0.00000    0.00000    3.52695

         MAIN DIRECTIONS OF THE EFG   1.0000  0.0000  0.0000
                                      0.0000  1.0000  0.0000
                                      0.0000  0.0000  1.0000
:ANG002:  ANGLE WITH OLD X-AXIS =         0.0

:ETA002:                         ASYMM. ETA =     0.00000


       ATOMNUMBER=  3 O 1        VCOUL-ZERO =  0.17687E+00
:EFG003:                        EFG         =     1.99411   *10**21  V / m**2
                               V20  TOT/SRF=     1.72695     0.31222
                               V22  TOT/SRF=     0.00000     0.00000
                               V22M TOT/SRF=     0.00000     0.00000
                               V21  TOT/SRF=     0.00000     0.00000
                               V21M TOT/SRF=     0.00000     0.00000

             -0.99706    0.00000    0.00000       -0.99706    0.00000    0.00000
              0.00000   -0.99706    0.00000        0.00000   -0.99706    0.00000
              0.00000    0.00000    1.99411        0.00000    0.00000    1.99411

         MAIN DIRECTIONS OF THE EFG   1.0000  0.0000  0.0000
                                      0.0000  1.0000  0.0000
                                      0.0000  0.0000  1.0000
:ANG003:  ANGLE WITH OLD X-AXIS =         0.0

:ETA003:                         ASYMM. ETA =     0.00000


     HELLMANN-FEYNMAN-FORCE IN mRy/a.u. = |F|  Fx       Fy             Fz
:FHF001:   1.ATOM      0.000000000      0.000000000      0.000000000      0.000000000

     HELLMANN-FEYNMAN-FORCE IN mRy/a.u. = |F|  Fx       Fy             Fz
:FHF002:   2.ATOM      0.000000000      0.000000000      0.000000000      0.000000000

     HELLMANN-FEYNMAN-FORCE IN mRy/a.u. = |F|  Fx       Fy             Fz
:FHF003:   3.ATOM     13.465591591      0.000000000      0.000000000    -13.465591591

:FIT001: LUSE= 13 SIGMA OF V-XC FIT FOR ATOM  1  0.7451444E-02
:FIT001: LUSE= 13 SIGMA OF V-XC FIT FOR ATOM  1  0.7451444E-02
:FIT002: LUSE= 13 SIGMA OF V-XC FIT FOR ATOM  2  0.1660403E-01
:FIT002: LUSE= 13 SIGMA OF V-XC FIT FOR ATOM  2  0.1660403E-01
:FIT003: LUSE= 13 SIGMA OF V-XC FIT FOR ATOM  3  0.2375175E-03
:FIT003: LUSE= 13 SIGMA OF V-XC FIT FOR ATOM  3  0.2375175E-03
:DEN  : DENSITY INTEGRAL  =         -3227.88826031   (Ry)
       ELS_POTENTIAL_AT Z=0 and Z=0.5:   0.00000   0.00000
       ELS_POTENTIAL_AT Y=0 and Y=0.5:   0.00000   0.00000
:VZERO:v0,v0c,v0x  -0.78820   0.00000  -0.78820 v5,v5c,v5x  -0.78820   0.00000  -0.78820
:VZERY:v0,v0c,v0x  -0.78820   0.00000  -0.78820 v5,v5c,v5x  -0.78820   0.00000  -0.78820
:VZERX:v0,v0c,v0x  -2.18052  -1.01436  -1.16616 v5,v5c,v5x  -0.27913   0.07585  -0.35498

          ATOMIC SPHERE DEPENDENT PARAMETERS FOR ATOM  Cu1       
:e__0001: OVERALL ENERGY PARAMETER IS    0.2823
          OVERALL BASIS SET ON ATOM IS LAPW
:E1_0001: E( 1)=    0.2823
             APW+lo
:E1_0001: E( 1)=   -4.5945   E(BOTTOM)=   -4.662   E(TOP)=   -4.527  1  2   172
             LOCAL ORBITAL
:E2_0001: E( 2)=    0.3265   E(BOTTOM)=   -0.006   E(TOP)=    0.659  0  1   129
             APW+lo
:E0_0001: E( 0)=    0.2823
             APW+lo

          ATOMIC SPHERE DEPENDENT PARAMETERS FOR ATOM  Ga1       
:e__0002: OVERALL ENERGY PARAMETER IS    0.2823
          OVERALL BASIS SET ON ATOM IS LAPW
:E2_0002: E( 2)=   -0.6134   E(BOTTOM)=   -0.820   E(TOP)=   -0.407  0  1   144
             APW+lo
:E2_0002: E( 2)=    0.6823
             LOCAL ORBITAL
:E0_0002: E( 0)=    0.2823
             APW+lo
:E1_0002: E( 1)=    0.2823
             APW+lo

          ATOMIC SPHERE DEPENDENT PARAMETERS FOR ATOM  O 1       
:e__0003: OVERALL ENERGY PARAMETER IS    0.2823
          OVERALL BASIS SET ON ATOM IS LAPW
:E0_0003: E( 0)=   -1.5500   E(BOTTOM)=   -2.601   E(TOP)= -200.000  1 -1   233
             APW+lo
:E0_0003: E( 0)=    0.6823
             LOCAL ORBITAL
:E1_0003: E( 1)=    0.2823
             APW+lo

       K=   0.00000   0.00000   0.00000            1
:RKM  : MATRIX SIZE   991LOs:  36  RKM= 7.99  WEIGHT= 1.00  PGR:    
       EIGENVALUES ARE:
:EIG00001:      -4.5912691   -4.5738447   -4.5738447   -1.0447824   -0.9016494
:EIG00006:      -0.5925372   -0.5925372   -0.5853800   -0.5692886   -0.5692886
:EIG00011:      -0.1024051    0.2084807    0.2244253    0.2475629    0.2475629
:EIG00016:       0.2655462    0.2655462    0.3640030    0.3640030    0.4274476
:EIG00021:       0.4274476    0.5538257    0.8472870    0.8927410    1.3451421
:EIG00026:       1.3451421    1.3500182    1.6648639    1.7289537    1.7289537
:EIG00031:       1.7721073    1.8200380    1.8200380    1.9118050
       ********************************************************

:KPT   :      NUMBER OF K-POINTS:    32
       Insulator, EF-inconsistency corrected
:GAP  :    0.0715 Ry =     0.973 eV   (provided you have a proper k-mesh)
         Bandranges (emin - emax) and occupancy:
:BAN00011:  11   -0.119792   -0.018857  2.00000000
:BAN00012:  12   -0.060869    0.208481  2.00000000
:BAN00013:  13    0.025920    0.234060  2.00000000
:BAN00014:  14    0.099085    0.247563  2.00000000
:BAN00015:  15    0.151986    0.247563  2.00000000
:BAN00016:  16    0.223088    0.293092  2.00000000
:BAN00017:  17    0.265546    0.363765  2.00000000
:BAN00018:  18    0.351599    0.393191  2.00000000
:BAN00019:  19    0.363943    0.409980  2.00000000
:BAN00020:  20    0.396426    0.434855  2.00000000
:BAN00021:  21    0.404789    0.482309  2.00000000
:BAN00022:  22    0.553826    0.853875  0.00000000
:BAN00023:  23    0.746649    0.909966  0.00000000
:BAN00024:  24    0.887855    1.126510  0.00000000
:BAN00025:  25    1.033556    1.345142  0.00000000
:BAN00026:  26    1.197099    1.378568  0.00000000
        Energy to separate low and high energystates:   -0.16979


:NOE  : NUMBER OF ELECTRONS          =  42.000

:FER  : F E R M I - ENERGY(TETRAH.M.)=   0.4823088094
:GMA  : POTENTIAL AND CHARGE CUT-OFF  12.00 Ry**.5




:POS001: ATOM   -1 X,Y,Z = 0.00000 0.00000 0.00000  MULT= 1  ZZ= 29.000  Cu1       

       LMMAX  7
       LM=   0 0  2 0  4 0  4 3  6 0  6 3  6 6

:CHA001: TOTAL VALENCE CHARGE INSIDE SPHERE   1 =  15.3771    (RMT=  2.0000 )
:PCS001: PARTIAL CHARGES SPHERE =  1 S,P,D,F,PZ,PXY, D-Z2,D-XY,X2Y2,D-XZ,YZ 
:QTL001: 0.2781 6.1527 8.9213 0.0187 2.1132 4.0395 0.0000 1.5680 3.6313 3.7220 0.0000 0.0000
        Q-s-low E-s-low   Q-p-low E-p-low   Q-d-low E-d-low   Q-f-low E-f-low
:EPL001:  0.0209 -0.8701    6.0052 -4.5663    0.0256 -0.8597    0.0033 -0.8807
        Q-s-hi  E-s-hi    Q-p-hi  E-p-hi    Q-d-hi  E-d-hi    Q-f-hi  E-f-hi 
:EPH001:  0.2572  0.2196    0.1475  0.1753    8.8957  0.3628    0.0153  0.1621
:VZZ001: EFG INSIDE SPHERE   1 =    -6.062244      UP TO R =   2.00000




:POS002: ATOM   -2 X,Y,Z = 0.50000 0.50000 0.50000  MULT= 1  ZZ= 31.000  Ga1       

       LMMAX  7
       LM=   0 0  2 0  4 0  4 3  6 0  6 3  6 6

:CHA002: TOTAL VALENCE CHARGE INSIDE SPHERE   2 =  10.7980    (RMT=  2.0000 )
:PCS002: PARTIAL CHARGES SPHERE =  2 S,P,D,F,PZ,PXY, D-Z2,D-XY,X2Y2,D-XZ,YZ 
:QTL002: 0.4405 0.4100 9.9047 0.0341 0.1238 0.2862 0.0000 1.9623 3.9638 3.9786 0.0000 0.0000
        Q-s-low E-s-low   Q-p-low E-p-low   Q-d-low E-d-low   Q-f-low E-f-low
:EPL002:  0.0584 -0.9652    0.0555 -0.9033    9.6096 -0.5768    0.0051 -0.8996
        Q-s-hi  E-s-hi    Q-p-hi  E-p-hi    Q-d-hi  E-d-hi    Q-f-hi  E-f-hi 
:EPH002:  0.3820 -0.0384    0.3545  0.1155    0.2951  0.1589    0.0290  0.1738
:VZZ002: EFG INSIDE SPHERE   2 =     3.635126      UP TO R =   2.00000




:POS003: ATOM   -3 X,Y,Z = 0.10802 0.10802 0.10802  MULT= 2  ZZ=  8.000  O 1       

       LMMAX 12
       LM=   0 0  1 0  2 0  3 0  3 3  4 0  4 3  5 0  5 3  6 0  6 3  6 6

:CHA003: TOTAL VALENCE CHARGE INSIDE SPHERE   3 =   4.5319    (RMT=  1.4000 )
:PCS003: PARTIAL CHARGES SPHERE =  3 S,P,D,F,PZ,PXY, D-Z2,D-XY,X2Y2,D-XZ,YZ 
:QTL003: 1.3908 3.1317 0.0080 0.0011 1.0295 2.1021 0.0000 0.0016 0.0018 0.0046 0.0000 0.0000
        Q-s-low E-s-low   Q-p-low E-p-low   Q-d-low E-d-low   Q-f-low E-f-low
:EPL003:  1.3262 -0.9189    0.0424 -0.6110    0.0017 -0.7207    0.0004 -0.8520
        Q-s-hi  E-s-hi    Q-p-hi  E-p-hi    Q-d-hi  E-d-hi    Q-f-hi  E-f-hi 
:EPH003:  0.0647  0.0486    3.0893  0.1534    0.0063  0.2508    0.0007  0.2902
:VZZ003: EFG INSIDE SPHERE   3 =     1.601440      UP TO R =   1.40000

:CHA  : TOTAL VALENCE CHARGE INSIDE UNIT CELL =      42.000000

:SUM  : SUM OF EIGENVALUES =         -31.772123237


        1.ATOM      Cu1                   5 CORE STATES
:1S 001: 1S                -649.675223265 Ry
:2S 001: 2S                 -77.366859127 Ry
:2PP001: 2P*                -67.684455983 Ry
:2P 001: 2P                 -66.178137616 Ry
:3S 001: 3S                  -7.711638281 Ry

        2.ATOM      Ga1                   7 CORE STATES
:1S 002: 1S                -750.822780241 Ry
:2S 002: 2S                 -91.877914393 Ry
:2PP002: 2P*                -81.232232693 Ry
:2P 002: 2P                 -79.199566080 Ry
:3S 002: 3S                 -10.040080584 Ry
:3PP002: 3P*                 -6.600979987 Ry
:3P 002: 3P                  -6.335161954 Ry

        3.ATOM      O 1                   1 CORE STATES
       CORE-FORCE in mRy/a.u. = |F|      Fx             Fy             Fz
:FCO003:   3.ATOM      4.596058714      0.000000000      0.000000000      4.596058714

:1S 003: 1S                 -36.724575571 Ry
:CINT001 Core Integral Atom   1   11.998494
:CINT002 Core Integral Atom   2   17.993650
:CINT003 Core Integral Atom   3    1.999999

       DENSITY AT NUCLEUS
        JATOM        VALENCE       SEMI-CORE          CORE           TOTAL
:RTO001:   1        7.961556        0.000000    22630.689862    22638.651418
:RTO002:   2       12.944871        0.000000    27809.864310    27822.809181
:RTO003:   3       14.992520        0.000000      304.058234      319.050754
     
       CHARGES OF NEW CHARGE DENSITY
:NTO   : INTERSTITIAL CHARGE =     6.761208
:NTO001: CHARGE SPHERE  1    =    27.375555
:NTO002: CHARGE SPHERE  2    =    28.791648
:NTO003: CHARGE SPHERE  3    =     6.531856

:NEC01: NUCLEAR AND ELECTRONIC CHARGE     76.00000    75.99212
     
       CHARGES OF OLD CHARGE DENSITY
:OTO   : INTERSTITIAL CHARGE =     6.769084
:OTO001: CHARGE SPHERE  1    =    27.375555
:OTO002: CHARGE SPHERE  2    =    28.791648
:OTO003: CHARGE SPHERE  3    =     6.531856

:NEC02: NUCLEAR AND ELECTRONIC CHARGE     76.00000    76.00000
     
       CONVERGENCE TEST
:DTO001: DIFFERENCE IN SPHERE  1 =  0.0000005
:DTO002: DIFFERENCE IN SPHERE  2 =  0.0000001
:DTO003: DIFFERENCE IN SPHERE  3 =  0.0000001

:DIS  :  CHARGE DISTANCE       ( 0.0000005 for atom    1 spin 1)      0.0000002
:BIG check (qbig,qrms,qtot)    0.161D-06   0.178D-06   0.179D-06
 
******************************************************
* MULTISECANT MIXING VER6 RELEASE 6.0 OPTIONS        *
* Standard Mode with controls                        *
* Regularization       1.000E-06                     *
* Trust Region Control Active                        *
* Max Number of Memory Steps    8                    *
******************************************************
 
:PLANE:  INTERSTITIAL TOTAL      1.90583 DISTAN  5.000E-06 % 
:CHARG:  CLM CHARGE   /ATOM     75.92764 DISTAN  4.126E-07 % 
 
 Step History DMIX, Red, Pred, Trust, FRMS, FABS
 15  2.0000E-01  2.5815E-01  3.5578E-01  5.1998E+00
 16  2.0000E-01  5.1632E-01  8.0678E-01  5.0482E+00
 17  2.0000E-01  4.6174E-01  8.6261E-01  5.2495E+00
 18  2.0000E-01  2.9421E-01  5.0806E-01  4.9372E+00
 19  2.0311E-01  6.0051E-01  7.4933E-01  5.4170E+00
 20  2.0000E-01  3.9231E-01  6.9457E-01  5.4115E+00
 21  2.0000E-01  3.9378E-01  8.2440E-01  4.2930E+00
 22  2.0000E-01  1.0000E+00  5.6901E-01  5.2094E+00
  
:NORMS:  Nuclear, Spectral, Froebius, Shanno-Pua   0.1268E+01  0.1042E+01  0.1168E+01  0.8625E+00
:INFO :  Number of Memory Steps    8 Skipping   13
:INFO :  SLambda=    1.3333333  Max    1.3333333

Eigenvalues, unscaled except for SY+YY
   #     SY Real        SY Imag          SS             YY         SY+YY Real      SY+YY Imag
   1   2.872026E+00   0.000000E+00   2.827626E+00   3.070977E+00   6.883844E+00   0.000000E+00
   2   1.810797E+00   0.000000E+00   1.766549E+00   1.988615E+00   4.371983E+00   0.000000E+00
   3   6.396860E-01   0.000000E+00   5.351167E-01   1.181628E+00   1.944053E+00   0.000000E+00
   4   5.840007E-01   0.000000E+00   4.071599E-01   8.905310E-01   1.763598E+00   0.000000E+00
   5   3.752190E-01   0.000000E+00   2.389363E-01   5.333359E-01   1.036234E+00   0.000000E+00
   6   1.398664E-01   0.000000E+00   6.748779E-02   3.848836E-03   5.202667E-01   0.000000E+00
   7   2.619734E-02   0.000000E+00   1.841528E-02   3.565989E-02   7.302625E-02   0.000000E+00
   8   2.203363E-03   0.000000E+00   1.201939E-03   2.954048E-01   6.990093E-03   0.000000E+00
 
:INFO :  Singular value   6.887E+00 Weight  1.0000E+00 Projections  -3.853E-07  1.005E-07
:INFO :  Singular value   4.381E+00 Weight  1.0000E+00 Projections  -4.210E-07 -4.016E-08
:INFO :  Singular value   1.952E+00 Weight  1.0000E+00 Projections   4.820E-06  2.045E-08
:INFO :  Singular value   1.755E+00 Weight  1.0000E+00 Projections  -6.222E-06 -8.460E-09
:INFO :  Singular value   1.036E+00 Weight  1.0000E+00 Projections   5.054E-06  2.211E-07
:INFO :  Singular value   5.195E-01 Weight  1.0000E+00 Projections  -7.040E-06 -1.486E-07
:INFO :  Singular value   7.301E-02 Weight  1.0000E+00 Projections   6.641E-06 -6.672E-07
:INFO :  Singular value   6.989E-03 Weight  1.0000E+00 Projections  -4.245E-06  1.411E-05
 
:DIRM :  MEMORY 8/8 RESCALE   8.76 RED 0.395 PRED 0.569 NEXT 0.744
:INFO :  Blimit    5.067E+00  1.279E+00  1.000E+00  5.118E+00
:DIRP :  |MSR1|= 4.773E-07 |PRATT|= 8.351E-07 ANGLE=  33.7 DEGREES
:DIRQ :  |MSR1|= 0.000E+00 |PRATT|= 0.000E+00 ANGLE=   0.0 DEGREES
:DIR  :  |MSR1|= 6.589E-07 |PRATT|= 1.257E-06 ANGLE=  26.5 DEGREES
:MIX  :   MSE1   REGULARIZATION: 3.07E-06  GREED: 0.200  Newton 1.00  0.52                
     
       CHARGES OF MIXED CHARGE DENSITY
:CTO   : INTERSTITIAL CHARGE =     6.769084
:CTO001: CHARGE SPHERE  1    =    27.375555
:CTO002: CHARGE SPHERE  2    =    28.791648
:CTO003: CHARGE SPHERE  3    =     6.531856

:NEC03: NUCLEAR AND ELECTRONIC CHARGE     76.00000    76.00000

PW CHANGE     H    K    L       Current     Change     Residue
:PTO001:      0    0    0  6.68750431E-02 -2.330E-11  7.527E-10
:PTO002:     -1   -1   -1 -2.29407660E-02  9.080E-10  8.402E-10
:PTO003:     -2   -2   -2 -4.91002781E-03  9.531E-10  2.321E-09
:PTO004:     -1    0    0  1.14935563E-01 -9.320E-10 -2.779E-09
:PTO005:     -1   -1    0  7.66959792E-02 -1.083E-09 -2.893E-10
:PTO006:     -2   -1   -1 -6.09615413E-02  1.456E-09  2.371E-09
:PTO007:     -2   -2   -1 -8.30714692E-02  2.946E-09  2.377E-09
:PTO008:     -3   -3   -3  3.19441486E-02  1.743E-10  4.804E-10
:PTO009:     -3   -2   -2  1.34040522E-02  1.843E-09  2.957E-09
:PTO010:     -3   -3   -2  5.38787934E-02 -6.197E-10  8.086E-10
:PTO011:     -1    0    1  5.04535724E-02 -7.457E-10 -6.211E-11
:PTO012:     -2   -1    0 -2.91304680E-02  3.794E-09  4.135E-09

:ENE  : ********** TOTAL ENERGY IN Ry =        -7499.43447754

       TOTAL FORCE IN mRy/a.u. = |F|     Fx             Fy             Fz     with/without FOR in case.in2
:FOR001:   1.ATOM          0.000          0.000          0.000          0.000 partial forces
:FOR002:   2.ATOM          0.000          0.000          0.000          0.000 partial forces
:FOR003:   3.ATOM          8.870          0.000          0.000         -8.870 partial forces
       TOTAL FORCE WITH RESPECT TO GLOBAL CARTESIAN COORDINATES:
:FCA001:   1.ATOM                         0.000          0.000          0.000 partial forces
:FCA002:   2.ATOM                         0.000          0.000          0.000 partial forces
:FCA003:   3.ATOM                         0.000          0.000         -8.870 partial forces
       TOTAL FORCE WITH RESPECT TO THE GLOBAL COORDINATE SYSTEM:
:FGL001:   1.ATOM                 0.000000000     0.000000000     0.000000000 partial forces
:FGL002:   2.ATOM                 0.000000000     0.000000000     0.000000000 partial forces
:FGL003:   3.ATOM                -8.869532877    -8.869532877    -8.869532877 partial forces
