       N       E                     dE             d eps       ncg     rms          rms(c)
DAV:   1     0.415717645542E+03    0.41572E+03   -0.16683E+04 13816   0.307E+03
DAV:   2     0.254824412172E+01   -0.41317E+03   -0.37645E+03 13152   0.834E+02
DAV:   3    -0.303581750817E+02   -0.32906E+02   -0.32527E+02 13800   0.225E+02
DAV:   4    -0.315480775350E+02   -0.11899E+01   -0.11891E+01 13992   0.312E+01
DAV:   5    -0.315945633416E+02   -0.46486E-01   -0.46478E-01 13100   0.570E+00    0.142E+01
RMM:   6    -0.295944161057E+02    0.20001E+01   -0.14102E+01  9088   0.140E+02    0.113E+01
RMM:   7    -0.273695617066E+02    0.22249E+01   -0.47503E+00  9653   0.698E+01    0.324E+00
RMM:   8    -0.273955433703E+02   -0.25982E-01   -0.63470E-01  9641   0.169E+01    0.189E+00
RMM:   9    -0.274039066949E+02   -0.83633E-02   -0.25125E-01 10190   0.820E+00    0.489E-01
RMM:  10    -0.274081469767E+02   -0.42403E-02   -0.74487E-02 10730   0.389E+00    0.174E-01
RMM:  11    -0.274091860097E+02   -0.10390E-02   -0.17988E-02 10652   0.201E+00    0.567E-02
RMM:  12    -0.274096771937E+02   -0.49118E-03   -0.53680E-03 10626   0.118E+00    0.343E-02
RMM:  13    -0.274098860391E+02   -0.20885E-03   -0.18061E-03 10972   0.667E-01    0.188E-02
RMM:  14    -0.274099537226E+02   -0.67683E-04   -0.60952E-04 10966   0.393E-01    0.107E-02
RMM:  15    -0.274099762953E+02   -0.22573E-04   -0.20722E-04 11120   0.222E-01    0.880E-03
RMM:  16    -0.274099858887E+02   -0.95934E-05   -0.77866E-05 11060   0.142E-01    0.707E-03
RMM:  17    -0.274099886995E+02   -0.28108E-05   -0.31109E-05 10921   0.905E-02    0.450E-04
RMM:  18    -0.274099903339E+02   -0.16344E-05   -0.12698E-05 10866   0.542E-02    0.866E-04
RMM:  19    -0.274099911607E+02   -0.82684E-06   -0.55269E-06  9679   0.379E-02    0.116E-03
RMM:  20    -0.274099916609E+02   -0.50023E-06   -0.25432E-06  8744   0.261E-02    0.115E-03
RMM:  21    -0.274099917537E+02   -0.92759E-07   -0.11434E-06  7948   0.185E-02    0.974E-04
RMM:  22    -0.274099918219E+02   -0.68234E-07   -0.48350E-07  7532   0.142E-02
   1 F= -.27409992E+02 E0= -.27409992E+02  d E =-.274100E+02
       N       E                     dE             d eps       ncg     rms          rms(c)
DAV:   1    -0.281306641038E+02   -0.72067E+00   -0.13744E+01  9564   0.227E+02    0.789E+00
RMM:   2    -0.279121003512E+02    0.21856E+00   -0.21759E+00  9104   0.558E+01    0.494E+00
RMM:   3    -0.274013529767E+02    0.51075E+00   -0.90018E-01  9139   0.324E+01    0.182E+00
RMM:   4    -0.274111354537E+02   -0.97825E-02   -0.28974E-01 10203   0.841E+00    0.604E-01
RMM:   5    -0.274126256620E+02   -0.14902E-02   -0.69181E-02 10613   0.413E+00    0.397E-01
RMM:   6    -0.274112693956E+02    0.13563E-02   -0.14444E-02 10066   0.286E+00    0.872E-02
RMM:   7    -0.274122635241E+02   -0.99413E-03   -0.94329E-03 11108   0.126E+00    0.367E-02
RMM:   8    -0.274124732140E+02   -0.20969E-03   -0.20370E-03 11010   0.712E-01    0.284E-02
RMM:   9    -0.274125489197E+02   -0.75706E-04   -0.71506E-04 11141   0.405E-01    0.938E-03
RMM:  10    -0.274125790997E+02   -0.30180E-04   -0.24172E-04 11156   0.249E-01    0.320E-03
RMM:  11    -0.274125933368E+02   -0.14237E-04   -0.98622E-05 11157   0.155E-01    0.230E-03
RMM:  12    -0.274125989437E+02   -0.56069E-05   -0.40864E-05 10908   0.970E-02    0.192E-03
RMM:  13    -0.274126013633E+02   -0.24195E-05   -0.17105E-05 10379   0.641E-02    0.163E-03
RMM:  14    -0.274126023725E+02   -0.10092E-05   -0.76638E-06  9637   0.439E-02    0.252E-03
RMM:  15    -0.274126031280E+02   -0.75556E-06   -0.34760E-06  8976   0.293E-02    0.155E-03
RMM:  16    -0.274126034229E+02   -0.29491E-06   -0.14831E-06  8106   0.209E-02    0.126E-03
RMM:  17    -0.274575250862E+02   -0.44922E-01   -0.56199E-07  7637   0.157E-02    0.247E-01
RMM:  18    -0.274126612618E+02    0.44864E-01   -0.13016E+00  8514   0.727E-01    0.106E-02
RMM:  19    -0.274126021589E+02    0.59103E-04   -0.19372E-06  8505   0.329E-02    0.776E-03
RMM:  20    -0.274126025855E+02   -0.42659E-06   -0.34645E-07  7714   0.173E-02    0.653E-03
RMM:  21    -0.274126026480E+02   -0.62421E-07   -0.12134E-07  7245   0.101E-02
   2 F= -.27412603E+02 E0= -.27412603E+02  d E =-.261083E-02
       N       E                     dE             d eps       ncg     rms          rms(c)
DAV:   1    -0.274816398670E+02   -0.69037E-01   -0.18822E+00  8840   0.110E+02    0.239E+00
RMM:   2    -0.274401286324E+02    0.41511E-01   -0.22153E-01  9472   0.167E+01    0.124E+00
RMM:   3    -0.274174203364E+02    0.22708E-01   -0.11867E-01  9086   0.119E+01    0.806E-01
RMM:   4    -0.274159538588E+02    0.14665E-02   -0.47170E-02 10371   0.373E+00    0.191E-01
RMM:   5    -0.274167887204E+02   -0.83486E-03   -0.12803E-02 10854   0.214E+00    0.110E-01
RMM:   6    -0.274169017124E+02   -0.11299E-03   -0.27242E-03 10076   0.134E+00    0.568E-02
RMM:   7    -0.274170423567E+02   -0.14064E-03   -0.17120E-03 10951   0.606E-01    0.254E-02
RMM:   8    -0.274170879979E+02   -0.45641E-04   -0.43690E-04 11190   0.350E-01    0.133E-02
RMM:   9    -0.274171177160E+02   -0.29718E-04   -0.16046E-04 10903   0.239E-01    0.129E-02
RMM:  10    -0.274171250762E+02   -0.73602E-05   -0.54760E-05 10796   0.129E-01    0.160E-02
RMM:  11    -0.274171273934E+02   -0.23172E-05   -0.18970E-05  9948   0.926E-02    0.550E-03
RMM:  12    -0.274171303382E+02   -0.29448E-05   -0.11333E-05  9612   0.605E-02    0.268E-03
RMM:  13    -0.274171311831E+02   -0.84488E-06   -0.47657E-06  9148   0.371E-02    0.228E-03
RMM:  14    -0.274171316431E+02   -0.46000E-06   -0.19927E-06  8235   0.253E-02    0.229E-03
RMM:  15    -0.274171321066E+02   -0.46353E-06   -0.77569E-07  7701   0.202E-02    0.203E-03
RMM:  16    -0.274171326328E+02   -0.52615E-06   -0.36477E-07  7308   0.154E-02    0.282E-03
RMM:  17    -0.274171327802E+02   -0.14737E-06   -0.16682E-07  7264   0.118E-02    0.277E-03
RMM:  18    -0.274171326486E+02    0.13152E-06   -0.88983E-08  7113   0.106E-02    0.202E-03
RMM:  19    -0.274171326322E+02    0.16435E-07   -0.34311E-08  7013   0.890E-03
   3 F= -.27417133E+02 E0= -.27417133E+02  d E =-.452998E-02
       N       E                     dE             d eps       ncg     rms          rms(c)
DAV:   1    -0.274181337443E+02   -0.10011E-02   -0.37392E-02  9700   0.158E+01    0.328E-01
RMM:   2    -0.274175863530E+02    0.54739E-03   -0.62974E-03  9440   0.287E+00    0.191E-01
RMM:   3    -0.274170900073E+02    0.49635E-03   -0.27873E-03  9506   0.179E+00    0.105E-01
RMM:   4    -0.274171188854E+02   -0.28878E-04   -0.13181E-03 10558   0.528E-01    0.278E-02
RMM:   5    -0.274171259057E+02   -0.70202E-05   -0.24181E-04 10728   0.277E-01    0.958E-03
RMM:   6    -0.274171361323E+02   -0.10227E-04   -0.73051E-05 10410   0.179E-01    0.488E-03
RMM:   7    -0.274171387205E+02   -0.25882E-05   -0.27636E-05 10648   0.909E-02    0.170E-03
RMM:   8    -0.274171393143E+02   -0.59385E-06   -0.70115E-06  9923   0.503E-02    0.565E-04
RMM:   9    -0.274171396344E+02   -0.32009E-06   -0.27867E-06  9104   0.325E-02    0.311E-04
RMM:  10    -0.274171397707E+02   -0.13630E-06   -0.10375E-06  8017   0.238E-02    0.301E-04
RMM:  11    -0.274171398201E+02   -0.49368E-07   -0.37539E-07  7646   0.159E-02
   4 F= -.27417140E+02 E0= -.27417140E+02  d E =-.718789E-05
       N       E                     dE             d eps       ncg     rms          rms(c)
DAV:   1    -0.274179315064E+02   -0.79174E-03   -0.16499E-02  9616   0.835E+00    0.241E-01
RMM:   2    -0.274175296896E+02    0.40182E-03   -0.20613E-03  9049   0.169E+00    0.137E-01
RMM:   3    -0.274171992044E+02    0.33049E-03   -0.95500E-04  9039   0.113E+00    0.716E-02
RMM:   4    -0.274171776489E+02    0.21556E-04   -0.21738E-04 10140   0.293E-01    0.174E-02
RMM:   5    -0.274171820575E+02   -0.44087E-05   -0.87841E-05 10421   0.153E-01    0.107E-02
RMM:   6    -0.274171815299E+02    0.52770E-06   -0.19065E-05  9905   0.103E-01    0.465E-03
RMM:   7    -0.274171824886E+02   -0.95870E-06   -0.11444E-05 10161   0.495E-02    0.262E-03
RMM:   8    -0.274171826910E+02   -0.20244E-06   -0.26258E-06  9335   0.299E-02    0.135E-03
RMM:   9    -0.274171827697E+02   -0.78663E-07   -0.10280E-06  8413   0.198E-02    0.106E-03
RMM:  10    -0.274171827243E+02    0.45306E-07   -0.32220E-07  7684   0.148E-02
   5 F= -.27417183E+02 E0= -.27417183E+02  d E =-.429042E-04
       N       E                     dE             d eps       ncg     rms          rms(c)
DAV:   1    -0.274171956557E+02   -0.12886E-04   -0.27962E-04 10288   0.996E-01    0.302E-02
RMM:   2    -0.274171894913E+02    0.61643E-05   -0.37430E-05  9136   0.225E-01    0.175E-02
RMM:   3    -0.274171844567E+02    0.50347E-05   -0.18396E-05  9172   0.148E-01    0.861E-03
RMM:   4    -0.274171844032E+02    0.53473E-07   -0.54805E-06  9713   0.374E-02    0.260E-03
RMM:   5    -0.274171844700E+02   -0.66825E-07   -0.11591E-06  8552   0.215E-02    0.119E-03
RMM:   6    -0.274171844865E+02   -0.16471E-07   -0.36886E-07  7957   0.154E-02
   6 F= -.27417184E+02 E0= -.27417184E+02  d E =-.176217E-05
       N       E                     dE             d eps       ncg     rms          rms(c)
DAV:   1    -0.274171960705E+02   -0.11600E-04   -0.38533E-04 10316   0.128E+00    0.342E-02
RMM:   2    -0.274171894923E+02    0.65781E-05   -0.57779E-05  9038   0.298E-01    0.208E-02
RMM:   3    -0.274171824983E+02    0.69941E-05   -0.26271E-05  9237   0.178E-01    0.982E-03
RMM:   4    -0.274171825144E+02   -0.16093E-07   -0.78282E-06  9782   0.449E-02    0.300E-03
RMM:   5    -0.274171824617E+02    0.52643E-07   -0.17787E-06  8993   0.254E-02    0.115E-03
RMM:   6    -0.274171825093E+02   -0.47584E-07   -0.53442E-07  8095   0.185E-02
   7 F= -.27417183E+02 E0= -.27417183E+02  d E =0.197722E-05
       N       E                     dE             d eps       ncg     rms          rms(c)
DAV:   1    -0.274171825545E+02   -0.92760E-07   -0.42115E-05 11328   0.223E-01    0.402E-03
RMM:   2    -0.274171824305E+02    0.12400E-06   -0.13080E-06  8424   0.471E-02    0.214E-03
RMM:   3    -0.274171823977E+02    0.32755E-07   -0.48903E-07  7783   0.236E-02
   8 F= -.27417182E+02 E0= -.27417182E+02  d E =0.111579E-06
       N       E                     dE             d eps       ncg     rms          rms(c)
DAV:   1    -0.274176664127E+02   -0.48398E-03   -0.27478E-02 11116   0.981E+00    0.218E-01
RMM:   2    -0.274173942011E+02    0.27221E-03   -0.28366E-03  8901   0.224E+00    0.141E-01
RMM:   3    -0.274171167963E+02    0.27740E-03   -0.12568E-03  9285   0.129E+00    0.663E-02
RMM:   4    -0.274171260430E+02   -0.92467E-05   -0.50993E-04  9952   0.334E-01    0.164E-02
RMM:   5    -0.274171286782E+02   -0.26353E-05   -0.90924E-05 10584   0.174E-01    0.731E-03
RMM:   6    -0.274171322009E+02   -0.35226E-05   -0.27604E-05  9986   0.119E-01    0.535E-03
RMM:   7    -0.274171336045E+02   -0.14036E-05   -0.11481E-05 10157   0.658E-02    0.844E-04
RMM:   8    -0.274171340656E+02   -0.46105E-06   -0.34614E-06  9476   0.361E-02    0.795E-04
RMM:   9    -0.274171342854E+02   -0.21987E-06   -0.11820E-06  8500   0.253E-02    0.533E-04
RMM:  10    -0.274171344152E+02   -0.12975E-06   -0.58485E-07  7934   0.200E-02    0.265E-04
RMM:  11    -0.274171344011E+02    0.14135E-07   -0.26904E-07  7574   0.139E-02
   9 F= -.27417134E+02 E0= -.27417134E+02  d E =0.479967E-04
       N       E                     dE             d eps       ncg     rms          rms(c)
DAV:   1    -0.274173364796E+02   -0.20206E-03   -0.61955E-03 11824   0.451E+00    0.116E-01
RMM:   2    -0.274172512618E+02    0.85218E-04   -0.62785E-04  8916   0.102E+00    0.714E-02
RMM:   3    -0.274171687933E+02    0.82468E-04   -0.28855E-04  9236   0.610E-01    0.335E-02
RMM:   4    -0.274171703359E+02   -0.15427E-05   -0.10262E-04  9949   0.151E-01    0.927E-03
RMM:   5    -0.274171710874E+02   -0.75148E-06   -0.24298E-05 10590   0.793E-02    0.471E-03
RMM:   6    -0.274171714044E+02   -0.31695E-06   -0.55861E-06  9599   0.554E-02    0.305E-03
RMM:   7    -0.274171715156E+02   -0.11120E-06   -0.27599E-06  9263   0.282E-02    0.578E-04
RMM:   8    -0.274171715791E+02   -0.63489E-07   -0.80202E-07  8413   0.179E-02
  10 F= -.27417172E+02 E0= -.27417172E+02  d E =-.371780E-04
       N       E                     dE             d eps       ncg     rms          rms(c)
DAV:   1    -0.274174503962E+02   -0.27888E-03   -0.35584E-02 11180   0.953E+00    0.187E-01
RMM:   2    -0.274172623179E+02    0.18808E-03   -0.23020E-03  8916   0.203E+00    0.119E-01
RMM:   3    -0.274171128383E+02    0.14948E-03   -0.12805E-03  9432   0.111E+00    0.591E-02
RMM:   4    -0.274171273936E+02   -0.14555E-04   -0.53123E-04 10340   0.322E-01    0.144E-02
RMM:   5    -0.274171303472E+02   -0.29535E-05   -0.98599E-05 10744   0.161E-01    0.561E-03
RMM:   6    -0.274171330253E+02   -0.26782E-05   -0.26322E-05 10250   0.104E-01    0.366E-03
RMM:   7    -0.274171339428E+02   -0.91745E-06   -0.10417E-05 10137   0.575E-02    0.807E-04
RMM:   8    -0.274171341057E+02   -0.16290E-06   -0.29326E-06  9360   0.327E-02    0.891E-04
RMM:   9    -0.274171342162E+02   -0.11053E-06   -0.10862E-06  8508   0.223E-02    0.501E-04
RMM:  10    -0.274171343137E+02   -0.97536E-07   -0.47834E-07  7815   0.173E-02
  11 F= -.27417134E+02 E0= -.27417134E+02  d E =0.372653E-04
       N       E                     dE             d eps       ncg     rms          rms(c)
DAV:   1    -0.274173155422E+02   -0.18133E-03   -0.14360E-02 11292   0.548E+00    0.116E-01
RMM:   2    -0.274172353313E+02    0.80211E-04   -0.81665E-04  8900   0.120E+00    0.727E-02
RMM:   3    -0.274171755172E+02    0.59814E-04   -0.47261E-04  9427   0.669E-01    0.355E-02
RMM:   4    -0.274171809829E+02   -0.54656E-05   -0.18339E-04 10297   0.185E-01    0.916E-03
RMM:   5    -0.274171824893E+02   -0.15064E-05   -0.33626E-05 10647   0.917E-02    0.392E-03
RMM:   6    -0.274171837993E+02   -0.13101E-05   -0.78670E-06  9676   0.639E-02    0.242E-03
RMM:   7    -0.274171842213E+02   -0.42196E-06   -0.36688E-06  9684   0.326E-02    0.530E-04
RMM:   8    -0.274171844009E+02   -0.17961E-06   -0.87946E-07  8437   0.200E-02    0.700E-04
RMM:   9    -0.274171844576E+02   -0.56756E-07   -0.36627E-07  7883   0.151E-02
  12 F= -.27417184E+02 E0= -.27417184E+02  d E =-.501439E-04
       N       E                     dE             d eps       ncg     rms          rms(c)
DAV:   1    -0.274176901603E+02   -0.50576E-03   -0.13533E-02  9964   0.674E+00    0.208E-01
RMM:   2    -0.274174120819E+02    0.27808E-03   -0.19068E-03  9112   0.162E+00    0.122E-01
RMM:   3    -0.274171669994E+02    0.24508E-03   -0.91006E-04  9348   0.104E+00    0.593E-02
RMM:   4    -0.274171652584E+02    0.17410E-05   -0.26040E-04 10167   0.256E-01    0.184E-02
RMM:   5    -0.274171675316E+02   -0.22732E-05   -0.70505E-05 10423   0.139E-01    0.685E-03
RMM:   6    -0.274171685873E+02   -0.10557E-05   -0.19325E-05 10152   0.815E-02    0.331E-03
RMM:   7    -0.274171693508E+02   -0.76347E-06   -0.87271E-06 10140   0.400E-02    0.933E-04
RMM:   8    -0.274171695236E+02   -0.17281E-06   -0.18440E-06  9044   0.252E-02    0.551E-04
RMM:   9    -0.274171695791E+02   -0.55450E-07   -0.69327E-07  8265   0.181E-02
  13 F= -.27417170E+02 E0= -.27417170E+02  d E =0.148785E-04
       N       E                     dE             d eps       ncg     rms          rms(c)
DAV:   1    -0.274172188209E+02   -0.49297E-04   -0.42750E-03 11276   0.197E+00    0.582E-02
RMM:   2    -0.274172006879E+02    0.18133E-04   -0.18704E-04  8832   0.548E-01    0.361E-02
RMM:   3    -0.274171836029E+02    0.17085E-04   -0.11254E-04  9453   0.313E-01    0.165E-02
RMM:   4    -0.274171844866E+02   -0.88367E-06   -0.31997E-05 10180   0.802E-02    0.486E-03
RMM:   5    -0.274171845826E+02   -0.96054E-07   -0.64558E-06  9893   0.433E-02    0.204E-03
RMM:   6    -0.274171846909E+02   -0.10823E-06   -0.17137E-06  9058   0.269E-02    0.113E-03
RMM:   7    -0.274171847500E+02   -0.59081E-07   -0.79019E-07  8648   0.153E-02
  14 F= -.27417185E+02 E0= -.27417185E+02  d E =-.151709E-04
       N       E                     dE             d eps       ncg     rms          rms(c)
DAV:   1    -0.274172180731E+02   -0.33382E-04   -0.95212E-04  9768   0.171E+00    0.531E-02
RMM:   2    -0.274172019089E+02    0.16164E-04   -0.13708E-04  9178   0.429E-01    0.319E-02
RMM:   3    -0.274171851626E+02    0.16746E-04   -0.60992E-05  9325   0.271E-01    0.151E-02
RMM:   4    -0.274171849708E+02    0.19178E-06   -0.16633E-05  9934   0.684E-02    0.468E-03
RMM:   5    -0.274171850021E+02   -0.31349E-07   -0.47563E-06  9560   0.353E-02    0.141E-03
RMM:   6    -0.274171850979E+02   -0.95803E-07   -0.11983E-06  8813   0.218E-02    0.808E-04
RMM:   7    -0.274171851509E+02   -0.52974E-07   -0.50538E-07  8139   0.142E-02
  15 F= -.27417185E+02 E0= -.27417185E+02  d E =-.400966E-06
       N       E                     dE             d eps       ncg     rms          rms(c)
DAV:   1    -0.274173132267E+02   -0.12813E-03   -0.52268E-03 11756   0.304E+00    0.103E-01
RMM:   2    -0.274172452164E+02    0.68010E-04   -0.45348E-04  8943   0.825E-01    0.599E-02
RMM:   3    -0.274171823666E+02    0.62850E-04   -0.19568E-04  9190   0.522E-01    0.294E-02
RMM:   4    -0.274171805954E+02    0.17712E-05   -0.51031E-05  9665   0.127E-01    0.778E-03
RMM:   5    -0.274171812125E+02   -0.61714E-06   -0.17556E-05 10289   0.620E-02    0.426E-03
RMM:   6    -0.274171813944E+02   -0.18187E-06   -0.42369E-06  9430   0.409E-02    0.249E-03
RMM:   7    -0.274171814844E+02   -0.90007E-07   -0.16712E-06  8856   0.247E-02    0.805E-04
RMM:   8    -0.274171815654E+02   -0.81031E-07   -0.60747E-07  8248   0.161E-02
  16 F= -.27417182E+02 E0= -.27417182E+02  d E =0.358551E-05
       N       E                     dE             d eps       ncg     rms          rms(c)
DAV:   1    -0.274173670196E+02   -0.18554E-03   -0.46963E-03  9540   0.363E+00    0.122E-01
RMM:   2    -0.274172718740E+02    0.95146E-04   -0.66516E-04  9256   0.933E-01    0.711E-02
RMM:   3    -0.274171868932E+02    0.84981E-04   -0.29918E-04  9251   0.626E-01    0.352E-02
RMM:   4    -0.274171847981E+02    0.20951E-05   -0.79425E-05  9933   0.155E-01    0.108E-02
RMM:   5    -0.274171853224E+02   -0.52425E-06   -0.22481E-05 10191   0.762E-02    0.340E-03
RMM:   6    -0.274171856179E+02   -0.29553E-06   -0.62392E-06  9706   0.455E-02    0.178E-03
RMM:   7    -0.274171858605E+02   -0.24260E-06   -0.26964E-06  9426   0.244E-02    0.893E-04
RMM:   8    -0.274171859216E+02   -0.61041E-07   -0.68911E-07  8224   0.167E-02
  17 F= -.27417186E+02 E0= -.27417186E+02  d E =-.435615E-05
       N       E                     dE             d eps       ncg     rms          rms(c)
DAV:   1    -0.274172911839E+02   -0.10532E-03   -0.23165E-03  8860   0.332E+00    0.916E-02
RMM:   2    -0.274172383328E+02    0.52851E-04   -0.36677E-04  9006   0.750E-01    0.547E-02
RMM:   3    -0.274171865212E+02    0.51812E-04   -0.16105E-04  9042   0.466E-01    0.268E-02
RMM:   4    -0.274171848783E+02    0.16429E-05   -0.35194E-05 10016   0.122E-01    0.795E-03
RMM:   5    -0.274171854042E+02   -0.52597E-06   -0.14555E-05 10081   0.647E-02    0.304E-03
RMM:   6    -0.274171855266E+02   -0.12242E-06   -0.29687E-06  9046   0.427E-02    0.172E-03
RMM:   7    -0.274171856411E+02   -0.11442E-06   -0.17070E-06  9026   0.217E-02    0.593E-04
RMM:   8    -0.274171856551E+02   -0.14070E-07   -0.35274E-07  7799   0.150E-02
  18 F= -.27417186E+02 E0= -.27417186E+02  d E =0.266429E-06
       N       E                     dE             d eps       ncg     rms          rms(c)
DAV:   1    -0.274172445959E+02   -0.58955E-04   -0.16280E-03  8772   0.293E+00    0.724E-02
RMM:   2    -0.274172124175E+02    0.32178E-04   -0.26888E-04  9198   0.636E-01    0.431E-02
RMM:   3    -0.274171837887E+02    0.28629E-04   -0.12486E-04  9461   0.386E-01    0.215E-02
RMM:   4    -0.274171839306E+02   -0.14186E-06   -0.39306E-05 10229   0.104E-01    0.711E-03
RMM:   5    -0.274171848829E+02   -0.95226E-06   -0.10549E-05 10085   0.611E-02    0.171E-03
RMM:   6    -0.274171851913E+02   -0.30839E-06   -0.25383E-06  9120   0.357E-02    0.103E-03
RMM:   7    -0.274171853695E+02   -0.17825E-06   -0.11704E-06  8689   0.203E-02    0.440E-04
RMM:   8    -0.274171854561E+02   -0.86589E-07   -0.35800E-07  7879   0.138E-02
  19 F= -.27417185E+02 E0= -.27417185E+02  d E =0.199046E-06
       N       E                     dE             d eps       ncg     rms          rms(c)
DAV:   1    -0.274172137516E+02   -0.28382E-04   -0.11235E-03 11140   0.215E+00    0.493E-02
RMM:   2    -0.274171991861E+02    0.14565E-04   -0.12320E-04  8936   0.459E-01    0.303E-02
RMM:   3    -0.274171854603E+02    0.13726E-04   -0.58807E-05  9274   0.272E-01    0.147E-02
RMM:   4    -0.274171858533E+02   -0.39301E-06   -0.21978E-05  9847   0.719E-02    0.397E-03
RMM:   5    -0.274171859244E+02   -0.71089E-07   -0.50766E-06  9898   0.379E-02    0.170E-03
RMM:   6    -0.274171860117E+02   -0.87263E-07   -0.12647E-06  8600   0.274E-02    0.136E-03
RMM:   7    -0.274171860013E+02    0.10346E-07   -0.49252E-07  8039   0.167E-02
  20 F= -.27417186E+02 E0= -.27417186E+02  d E =-.545249E-06
       N       E                     dE             d eps       ncg     rms          rms(c)
DAV:   1    -0.274171869881E+02   -0.97643E-06   -0.10863E-04 11068   0.475E-01    0.825E-03
RMM:   2    -0.274171865151E+02    0.47304E-06   -0.52984E-06  8749   0.982E-02    0.545E-03
RMM:   3    -0.274171863160E+02    0.19909E-06   -0.29657E-06  9040   0.520E-02    0.280E-03
RMM:   4    -0.274171862760E+02    0.39994E-07   -0.83600E-07  7895   0.178E-02
  21 F= -.27417186E+02 E0= -.27417186E+02  d E =-.274652E-06
       N       E                     dE             d eps       ncg     rms          rms(c)
DAV:   1    -0.274171950998E+02   -0.87838E-05   -0.31962E-04  9068   0.138E+00    0.301E-02
RMM:   2    -0.274171907066E+02    0.43932E-05   -0.55865E-05  9186   0.297E-01    0.184E-02
RMM:   3    -0.274171857115E+02    0.49950E-05   -0.23096E-05  9280   0.173E-01    0.942E-03
RMM:   4    -0.274171857567E+02   -0.45182E-07   -0.84433E-06  9857   0.481E-02    0.257E-03
RMM:   5    -0.274171857241E+02    0.32668E-07   -0.18198E-06  9197   0.268E-02    0.853E-04
RMM:   6    -0.274171857620E+02   -0.37939E-07   -0.58867E-07  8047   0.201E-02
  22 F= -.27417186E+02 E0= -.27417186E+02  d E =0.513996E-06
       N       E                     dE             d eps       ncg     rms          rms(c)
DAV:   1    -0.274172036192E+02   -0.17895E-04   -0.65448E-04  9288   0.178E+00    0.413E-02
RMM:   2    -0.274171945604E+02    0.90589E-05   -0.10982E-04  9271   0.393E-01    0.251E-02
RMM:   3    -0.274171855155E+02    0.90448E-05   -0.46217E-05  9502   0.229E-01    0.127E-02
RMM:   4    -0.274171856795E+02   -0.16391E-06   -0.16572E-05 10106   0.622E-02    0.389E-03
RMM:   5    -0.274171859760E+02   -0.29652E-06   -0.35088E-06  9623   0.379E-02    0.114E-03
RMM:   6    -0.274171861505E+02   -0.17448E-06   -0.10114E-06  8540   0.236E-02    0.676E-04
RMM:   7    -0.274171862400E+02   -0.89584E-07   -0.38336E-07  7924   0.159E-02
  23 F= -.27417186E+02 E0= -.27417186E+02  d E =-.478047E-06
       N       E                     dE             d eps       ncg     rms          rms(c)
DAV:   1    -0.274171841618E+02    0.19887E-05   -0.43805E-03 11092   0.135E+00    0.383E-02
RMM:   2    -0.274171785656E+02    0.55962E-05   -0.11938E-04  8837   0.440E-01    0.257E-02
RMM:   3    -0.274171737784E+02    0.47872E-05   -0.83213E-05  9569   0.227E-01    0.110E-02
RMM:   4    -0.274171741291E+02   -0.35068E-06   -0.18509E-05 10215   0.615E-02    0.310E-03
RMM:   5    -0.274171744416E+02   -0.31253E-06   -0.38249E-06  9537   0.365E-02    0.198E-03
RMM:   6    -0.274171745052E+02   -0.63554E-07   -0.14664E-06  8943   0.251E-02    0.129E-03
RMM:   7    -0.274171745581E+02   -0.52944E-07   -0.54637E-07  8291   0.137E-02
  24 F= -.27417175E+02 E0= -.27417175E+02  d E =0.116819E-04
       N       E                     dE             d eps       ncg     rms          rms(c)
DAV:   1    -0.274171838305E+02   -0.93253E-05   -0.53646E-03 10852   0.141E+00    0.292E-02
RMM:   2    -0.274171832678E+02    0.56269E-06   -0.11047E-04  8782   0.425E-01    0.205E-02
RMM:   3    -0.274171841723E+02   -0.90453E-06   -0.89563E-05  9763   0.198E-01    0.915E-03
RMM:   4    -0.274171851894E+02   -0.10170E-05   -0.23061E-05 10285   0.635E-02    0.264E-03
RMM:   5    -0.274171853589E+02   -0.16954E-06   -0.43595E-06  9734   0.380E-02    0.187E-03
RMM:   6    -0.274171854868E+02   -0.12794E-06   -0.16332E-06  8934   0.236E-02    0.707E-04
RMM:   7    -0.274171854824E+02    0.44247E-08   -0.52105E-07  8122   0.146E-02
  25 F= -.27417185E+02 E0= -.27417185E+02  d E =-.109243E-04
       N       E                     dE             d eps       ncg     rms          rms(c)
DAV:   1    -0.274173645693E+02   -0.17908E-03   -0.50514E-03  9876   0.403E+00    0.127E-01
RMM:   2    -0.274172737457E+02    0.90824E-04   -0.81618E-04  9102   0.107E+00    0.787E-02
RMM:   3    -0.274171723168E+02    0.10143E-03   -0.35495E-04  9349   0.659E-01    0.355E-02
RMM:   4    -0.274171716644E+02    0.65235E-06   -0.91611E-05 10057   0.157E-01    0.112E-02
RMM:   5    -0.274171722427E+02   -0.57826E-06   -0.27423E-05 10301   0.835E-02    0.358E-03
RMM:   6    -0.274171726847E+02   -0.44202E-06   -0.69285E-06  9835   0.487E-02    0.200E-03
RMM:   7    -0.274171729290E+02   -0.24431E-06   -0.30119E-06  9494   0.253E-02    0.698E-04
RMM:   8    -0.274171730113E+02   -0.82307E-07   -0.75383E-07  8301   0.176E-02
  26 F= -.27417173E+02 E0= -.27417173E+02  d E =0.124711E-04
       N       E                     dE             d eps       ncg     rms          rms(c)
DAV:   1    -0.274174384181E+02   -0.26549E-03   -0.12319E-02 11764   0.570E+00    0.147E-01
RMM:   2    -0.274173048752E+02    0.13354E-03   -0.10869E-03  8895   0.135E+00    0.921E-02
RMM:   3    -0.274171743530E+02    0.13052E-03   -0.50299E-04  9263   0.788E-01    0.421E-02
RMM:   4    -0.274171778060E+02   -0.34530E-05   -0.17876E-04  9978   0.193E-01    0.117E-02
RMM:   5    -0.274171799132E+02   -0.21072E-05   -0.40751E-05 10687   0.100E-01    0.542E-03
RMM:   6    -0.274171806470E+02   -0.73377E-06   -0.93113E-06  9792   0.684E-02    0.355E-03
RMM:   7    -0.274171810298E+02   -0.38282E-06   -0.45448E-06  9753   0.339E-02    0.675E-04
RMM:   8    -0.274171811967E+02   -0.16689E-06   -0.11616E-06  8659   0.213E-02    0.605E-04
RMM:   9    -0.274171812736E+02   -0.76920E-07   -0.47469E-07  7947   0.169E-02
  27 F= -.27417181E+02 E0= -.27417181E+02  d E =-.826231E-05
       N       E                     dE             d eps       ncg     rms          rms(c)
DAV:   1    -0.274171959456E+02   -0.14749E-04   -0.15161E-03 11236   0.167E+00    0.335E-02
RMM:   2    -0.274171905123E+02    0.54333E-05   -0.77169E-05  8891   0.371E-01    0.215E-02
RMM:   3    -0.274171860119E+02    0.45004E-05   -0.46773E-05  9456   0.199E-01    0.105E-02
RMM:   4    -0.274171864348E+02   -0.42286E-06   -0.16022E-05 10065   0.563E-02    0.262E-03
RMM:   5    -0.274171864411E+02   -0.63319E-08   -0.29066E-06  9552   0.306E-02    0.113E-03
RMM:   6    -0.274171864674E+02   -0.26313E-07   -0.85618E-07  8445   0.225E-02
  28 F= -.27417186E+02 E0= -.27417186E+02  d E =-.519376E-05
       N       E                     dE             d eps       ncg     rms          rms(c)
DAV:   1    -0.274175350021E+02   -0.34856E-03   -0.77716E-03  9496   0.564E+00    0.168E-01
RMM:   2    -0.274173643508E+02    0.17065E-03   -0.12987E-03  9015   0.139E+00    0.103E-01
RMM:   3    -0.274171807201E+02    0.18363E-03   -0.52186E-04  9077   0.844E-01    0.478E-02
RMM:   4    -0.274171739936E+02    0.67265E-05   -0.10619E-04 10044   0.205E-01    0.135E-02
RMM:   5    -0.274171760550E+02   -0.20614E-05   -0.45763E-05 10220   0.111E-01    0.585E-03
RMM:   6    -0.274171764527E+02   -0.39772E-06   -0.11662E-05  9828   0.696E-02    0.304E-03
RMM:   7    -0.274171768701E+02   -0.41747E-06   -0.54641E-06  9768   0.346E-02    0.970E-04
RMM:   8    -0.274171769975E+02   -0.12739E-06   -0.12586E-06  8729   0.220E-02    0.450E-04
RMM:   9    -0.274171770721E+02   -0.74565E-07   -0.48552E-07  7935   0.164E-02
  29 F= -.27417177E+02 E0= -.27417177E+02  d E =0.939530E-05
       N       E                     dE             d eps       ncg     rms          rms(c)
DAV:   1    -0.274172541929E+02   -0.77195E-04   -0.22833E-03 10068   0.302E+00    0.865E-02
RMM:   2    -0.274172096123E+02    0.44581E-04   -0.35412E-04  9081   0.719E-01    0.523E-02
RMM:   3    -0.274171639799E+02    0.45632E-04   -0.15796E-04  9277   0.443E-01    0.246E-02
RMM:   4    -0.274171639857E+02   -0.58608E-08   -0.46602E-05 10097   0.109E-01    0.751E-03
RMM:   5    -0.274171642456E+02   -0.25987E-06   -0.12806E-05 10207   0.592E-02    0.291E-03
RMM:   6    -0.274171644804E+02   -0.23476E-06   -0.33376E-06  9218   0.383E-02    0.157E-03
RMM:   7    -0.274171646028E+02   -0.12245E-06   -0.15606E-06  9067   0.205E-02    0.397E-04
RMM:   8    -0.274171646446E+02   -0.41770E-07   -0.39595E-07  7947   0.140E-02
  30 F= -.27417165E+02 E0= -.27417165E+02  d E =0.124275E-04
       N       E                     dE             d eps       ncg     rms          rms(c)
DAV:   1    -0.274173060926E+02   -0.14149E-03   -0.28119E-03  9352   0.336E+00    0.100E-01
RMM:   2    -0.274172395861E+02    0.66507E-04   -0.43561E-04  9011   0.800E-01    0.598E-02
RMM:   3    -0.274171776284E+02    0.61958E-04   -0.18322E-04  9108   0.496E-01    0.289E-02
RMM:   4    -0.274171754975E+02    0.21309E-05   -0.41352E-05  9970   0.125E-01    0.825E-03
RMM:   5    -0.274171765817E+02   -0.10842E-05   -0.16010E-05 10130   0.672E-02    0.383E-03
RMM:   6    -0.274171766132E+02   -0.31441E-07   -0.39330E-06  9256   0.430E-02    0.189E-03
RMM:   7    -0.274171768034E+02   -0.19026E-06   -0.20771E-06  9114   0.225E-02    0.785E-04
RMM:   8    -0.274171768558E+02   -0.52395E-07   -0.51183E-07  8064   0.155E-02
  31 F= -.27417177E+02 E0= -.27417177E+02  d E =-.122112E-04
       N       E                     dE             d eps       ncg     rms          rms(c)
DAV:   1    -0.274171850913E+02   -0.82878E-05   -0.29564E-03 11056   0.105E+00    0.317E-02
RMM:   2    -0.274171808697E+02    0.42216E-05   -0.79467E-05  8891   0.354E-01    0.210E-02
RMM:   3    -0.274171777368E+02    0.31329E-05   -0.57208E-05  9573   0.188E-01    0.904E-03
RMM:   4    -0.274171779914E+02   -0.25459E-06   -0.12633E-05 10100   0.513E-02    0.262E-03
RMM:   5    -0.274171782087E+02   -0.21735E-06   -0.25468E-06  9338   0.296E-02    0.155E-03
RMM:   6    -0.274171782523E+02   -0.43554E-07   -0.91598E-07  8625   0.204E-02
  32 F= -.27417178E+02 E0= -.27417178E+02  d E =-.139647E-05
       N       E                     dE             d eps       ncg     rms          rms(c)
DAV:   1    -0.274171906918E+02   -0.12483E-04   -0.95128E-04 11488   0.118E+00    0.329E-02
RMM:   2    -0.274171851679E+02    0.55240E-05   -0.61978E-05  8854   0.318E-01    0.213E-02
RMM:   3    -0.274171783578E+02    0.68101E-05   -0.29726E-05  9337   0.177E-01    0.921E-03
RMM:   4    -0.274171786022E+02   -0.24437E-06   -0.91721E-06  9669   0.438E-02    0.258E-03
RMM:   5    -0.274171785771E+02    0.25054E-07   -0.17716E-06  8893   0.255E-02    0.127E-03
RMM:   6    -0.274171786272E+02   -0.50052E-07   -0.60466E-07  8234   0.191E-02
  33 F= -.27417179E+02 E0= -.27417179E+02  d E =-.374859E-06
       N       E                     dE             d eps       ncg     rms          rms(c)
DAV:   1    -0.274171774111E+02    0.11661E-05   -0.47058E-04 10896   0.365E-01    0.694E-03
RMM:   2    -0.274171773443E+02    0.66737E-07   -0.78120E-06  8707   0.107E-01    0.341E-03
RMM:   3    -0.274171778401E+02   -0.49576E-06   -0.72741E-06  9540   0.450E-02    0.279E-03
RMM:   4    -0.274171778366E+02    0.34970E-08   -0.14193E-06  9060   0.201E-02    0.688E-04
RMM:   5    -0.274171778960E+02   -0.59408E-07   -0.40036E-07  7941   0.146E-02
  34 F= -.27417178E+02 E0= -.27417178E+02  d E =0.731173E-06
       N       E                     dE             d eps       ncg     rms          rms(c)
DAV:   1    -0.274172162746E+02   -0.38438E-04   -0.91066E-04  9096   0.207E+00    0.539E-02
RMM:   2    -0.274171995647E+02    0.16710E-04   -0.16162E-04  9176   0.490E-01    0.334E-02
RMM:   3    -0.274171822336E+02    0.17331E-04   -0.69338E-05  9401   0.289E-01    0.158E-02
RMM:   4    -0.274171824049E+02   -0.17129E-06   -0.21054E-05 10051   0.779E-02    0.514E-03
RMM:   5    -0.274171828512E+02   -0.44631E-06   -0.53653E-06  9781   0.442E-02    0.151E-03
RMM:   6    -0.274171829988E+02   -0.14758E-06   -0.13158E-06  8674   0.279E-02    0.917E-04
RMM:   7    -0.274171830970E+02   -0.98236E-07   -0.63021E-07  8247   0.165E-02
  35 F= -.27417183E+02 E0= -.27417183E+02  d E =-.520101E-05
       N       E                     dE             d eps       ncg     rms          rms(c)
DAV:   1    -0.274172141702E+02   -0.31171E-04   -0.91516E-04 10476   0.167E+00    0.502E-02
RMM:   2    -0.274171991177E+02    0.15053E-04   -0.12836E-04  8996   0.429E-01    0.301E-02
RMM:   3    -0.274171850165E+02    0.14101E-04   -0.54106E-05  9225   0.257E-01    0.143E-02
RMM:   4    -0.274171840996E+02    0.91688E-06   -0.62347E-05  9882   0.610E-02    0.437E-03
RMM:   5    -0.274171843248E+02   -0.22515E-06   -0.39117E-06  9348   0.341E-02    0.155E-03
RMM:   6    -0.274171843740E+02   -0.49267E-07   -0.10088E-06  8592   0.232E-02    0.972E-04
RMM:   7    -0.274171844217E+02   -0.47612E-07   -0.41797E-07  8000   0.146E-02
  36 F= -.27417184E+02 E0= -.27417184E+02  d E =-.132466E-05
       N       E                     dE             d eps       ncg     rms          rms(c)
DAV:   1    -0.274171888599E+02   -0.44859E-05   -0.26334E-04 11300   0.549E-01    0.161E-02
RMM:   2    -0.274171873290E+02    0.15309E-05   -0.15138E-05  8818   0.155E-01    0.104E-02
RMM:   3    -0.274171858070E+02    0.15220E-05   -0.73082E-06  9199   0.877E-02    0.450E-03
RMM:   4    -0.274171858501E+02   -0.43140E-07   -0.21783E-06  8814   0.232E-02    0.120E-03
RMM:   5    -0.274171859180E+02   -0.67887E-07   -0.44797E-07  7812   0.155E-02
  37 F= -.27417186E+02 E0= -.27417186E+02  d E =-.149638E-05
       N       E                     dE             d eps       ncg     rms          rms(c)
DAV:   1    -0.274174935158E+02   -0.30767E-03   -0.68917E-03  9116   0.551E+00    0.158E-01
RMM:   2    -0.274173482234E+02    0.14529E-03   -0.12394E-03  9018   0.137E+00    0.990E-02
RMM:   3    -0.274171787839E+02    0.16944E-03   -0.47605E-04  9065   0.811E-01    0.452E-02
RMM:   4    -0.274171720508E+02    0.67331E-05   -0.84136E-05 10005   0.199E-01    0.129E-02
RMM:   5    -0.274171739140E+02   -0.18632E-05   -0.40025E-05 10138   0.110E-01    0.479E-03
RMM:   6    -0.274171742765E+02   -0.36254E-06   -0.95065E-06  9641   0.691E-02    0.288E-03
RMM:   7    -0.274171745901E+02   -0.31361E-06   -0.46468E-06  9483   0.333E-02    0.858E-04
RMM:   8    -0.274171746926E+02   -0.10245E-06   -0.11068E-06  8560   0.227E-02    0.320E-04
RMM:   9    -0.274171747367E+02   -0.44136E-07   -0.45498E-07  7914   0.162E-02
  38 F= -.27417175E+02 E0= -.27417175E+02  d E =0.111813E-04
       N       E                     dE             d eps       ncg     rms          rms(c)
DAV:   1    -0.274171709270E+02    0.37656E-05   -0.13179E-03 11072   0.115E+00    0.157E-02
RMM:   2    -0.274171704131E+02    0.51390E-06   -0.33725E-05  8816   0.217E-01    0.814E-03
RMM:   3    -0.274171719197E+02   -0.15067E-05   -0.26532E-05  9741   0.952E-02    0.679E-03
RMM:   4    -0.274171716912E+02    0.22854E-06   -0.63039E-06  9920   0.462E-02    0.115E-03
RMM:   5    -0.274171718613E+02   -0.17005E-06   -0.20025E-06  9085   0.236E-02    0.125E-03
RMM:   6    -0.274171719233E+02   -0.62039E-07   -0.61608E-07  8155   0.166E-02
  39 F= -.27417172E+02 E0= -.27417172E+02  d E =0.281341E-05
       N       E                     dE             d eps       ncg     rms          rms(c)
DAV:   1    -0.274175124247E+02   -0.34056E-03   -0.82619E-03  8912   0.614E+00    0.172E-01
RMM:   2    -0.274173382229E+02    0.17420E-03   -0.14529E-03  9064   0.148E+00    0.107E-01
RMM:   3    -0.274171449689E+02    0.19325E-03   -0.59734E-04  9149   0.885E-01    0.498E-02
RMM:   4    -0.274171404870E+02    0.44820E-05   -0.13265E-04 10109   0.232E-01    0.149E-02
RMM:   5    -0.274171428769E+02   -0.23900E-05   -0.54311E-05 10424   0.123E-01    0.547E-03
RMM:   6    -0.274171434681E+02   -0.59118E-06   -0.12902E-05  9857   0.777E-02    0.324E-03
RMM:   7    -0.274171438805E+02   -0.41241E-06   -0.61086E-06  9797   0.377E-02    0.797E-04
RMM:   8    -0.274171439926E+02   -0.11207E-06   -0.14501E-06  8725   0.256E-02    0.559E-04
RMM:   9    -0.274171440410E+02   -0.48422E-07   -0.58541E-07  8120   0.190E-02
  40 F= -.27417144E+02 E0= -.27417144E+02  d E =0.278823E-04
       N       E                     dE             d eps       ncg     rms          rms(c)
DAV:   1    -0.274187236818E+02   -0.15797E-02   -0.33737E-02  9260   0.120E+01    0.347E-01
RMM:   2    -0.274179241787E+02    0.79950E-03   -0.52370E-03  9079   0.277E+00    0.206E-01
RMM:   3    -0.274171952268E+02    0.72895E-03   -0.22777E-03  9087   0.176E+00    0.102E-01
RMM:   4    -0.274171697634E+02    0.25463E-04   -0.52858E-04 10093   0.443E-01    0.291E-02
RMM:   5    -0.274171816217E+02   -0.11858E-04   -0.20241E-04 10506   0.236E-01    0.124E-02
RMM:   6    -0.274171828717E+02   -0.12500E-05   -0.49067E-05 10124   0.149E-01    0.634E-03
RMM:   7    -0.274171849341E+02   -0.20624E-05   -0.24551E-05 10566   0.695E-02    0.222E-03
RMM:   8    -0.274171855015E+02   -0.56741E-06   -0.54682E-06  9802   0.437E-02    0.901E-04
RMM:   9    -0.274171858432E+02   -0.34170E-06   -0.21713E-06  9002   0.296E-02    0.175E-04
RMM:  10    -0.274171859401E+02   -0.96971E-07   -0.76755E-07  8207   0.193E-02
  41 F= -.27417186E+02 E0= -.27417186E+02  d E =-.418991E-04
       N       E                     dE             d eps       ncg     rms          rms(c)
DAV:   1    -0.274171837951E+02    0.20480E-05   -0.63738E-04 10008   0.200E-01    0.524E-03
RMM:   2    -0.274171842332E+02   -0.43808E-06   -0.10067E-05  8856   0.999E-02    0.219E-03
RMM:   3    -0.274171850643E+02   -0.83107E-06   -0.96288E-06  9907   0.379E-02    0.229E-03
RMM:   4    -0.274171851048E+02   -0.40553E-07   -0.13801E-06  9246   0.201E-02    0.773E-04
RMM:   5    -0.274171851426E+02   -0.37747E-07   -0.45556E-07  7846   0.139E-02
  42 F= -.27417185E+02 E0= -.27417185E+02  d E =0.797561E-06
       N       E                     dE             d eps       ncg     rms          rms(c)
DAV:   1    -0.274171857948E+02   -0.68998E-06   -0.16203E-05  9880   0.238E-01    0.723E-03
RMM:   2    -0.274171855309E+02    0.26388E-06   -0.24086E-06  8672   0.590E-02    0.430E-03
RMM:   3    -0.274171854138E+02    0.11710E-06   -0.94125E-07  8233   0.369E-02    0.216E-03
RMM:   4    -0.274171851579E+02    0.25598E-06   -0.46784E-05  7135   0.114E-02    0.474E-04
RMM:   5    -0.274171851437E+02    0.14192E-07   -0.12663E-08  6784   0.946E-03
  43 F= -.27417185E+02 E0= -.27417185E+02  d E =-.108139E-08
       N       E                     dE             d eps       ncg     rms          rms(c)
DAV:   1    -0.274171706332E+02    0.14525E-04   -0.37331E-03  9140   0.427E-01    0.966E-03
RMM:   2    -0.274171733700E+02   -0.27368E-05   -0.55480E-05  8876   0.218E-01    0.422E-03
RMM:   3    -0.274171786045E+02   -0.52344E-05   -0.57409E-05 10350   0.700E-02    0.340E-03
RMM:   4    -0.274171789692E+02   -0.36473E-06   -0.69350E-06  9912   0.417E-02    0.208E-03
RMM:   5    -0.274171792502E+02   -0.28104E-06   -0.28067E-06  9171   0.227E-02    0.213E-03
RMM:   6    -0.274171793424E+02   -0.92185E-07   -0.80098E-07  8119   0.149E-02
  44 F= -.27417179E+02 E0= -.27417179E+02  d E =0.580125E-05
       N       E                     dE             d eps       ncg     rms          rms(c)
DAV:   1    -0.274171731089E+02    0.61414E-05   -0.45671E-03  9176   0.882E-01    0.125E-02
RMM:   2    -0.274171770471E+02   -0.39383E-05   -0.83408E-05  9049   0.275E-01    0.839E-03
RMM:   3    -0.274171832760E+02   -0.62288E-05   -0.74062E-05  9980   0.119E-01    0.576E-03
RMM:   4    -0.274171836620E+02   -0.38602E-06   -0.13455E-05 10230   0.548E-02    0.218E-03
RMM:   5    -0.274171840441E+02   -0.38214E-06   -0.38640E-06  9825   0.278E-02    0.509E-04
RMM:   6    -0.274171841401E+02   -0.96004E-07   -0.95287E-07  8523   0.180E-02
  45 F= -.27417184E+02 E0= -.27417184E+02  d E =-.479772E-05
       N       E                     dE             d eps       ncg     rms          rms(c)
DAV:   1    -0.274171906369E+02   -0.65928E-05   -0.58534E-04 11220   0.107E+00    0.226E-02
RMM:   2    -0.274171882631E+02    0.23738E-05   -0.33529E-05  8884   0.242E-01    0.148E-02
RMM:   3    -0.274171855718E+02    0.26913E-05   -0.17874E-05  9322   0.133E-01    0.690E-03
RMM:   4    -0.274171857704E+02   -0.19865E-06   -0.65868E-06  9434   0.374E-02    0.169E-03
RMM:   5    -0.274171857535E+02    0.16927E-07   -0.12381E-06  8715   0.222E-02    0.877E-04
RMM:   6    -0.274171857712E+02   -0.17702E-07   -0.44700E-07  8016   0.184E-02
  46 F= -.27417186E+02 E0= -.27417186E+02  d E =-.163108E-05
       N       E                     dE             d eps       ncg     rms          rms(c)
DAV:   1    -0.274171859009E+02   -0.14739E-06   -0.86717E-06 11112   0.104E-01    0.234E-03
RMM:   2    -0.274171858352E+02    0.65657E-07   -0.35852E-07  8016   0.259E-02
  47 F= -.27417186E+02 E0= -.27417186E+02  d E =-.640275E-07
       N       E                     dE             d eps       ncg     rms          rms(c)
DAV:   1    -0.274171864859E+02   -0.58496E-06   -0.25907E-05 11704   0.257E-01    0.665E-03
RMM:   2    -0.274171862141E+02    0.27177E-06   -0.27973E-06  8430   0.638E-02    0.465E-03
RMM:   3    -0.274171859026E+02    0.31148E-06   -0.94970E-07  8216   0.393E-02    0.188E-03
RMM:   4    -0.274171858750E+02    0.27602E-07   -0.14578E-07  7205   0.108E-02
  48 F= -.27417186E+02 E0= -.27417186E+02  d E =-.397677E-07
       N       E                     dE             d eps       ncg     rms          rms(c)
DAV:   1    -0.274171872300E+02   -0.13274E-05   -0.10499E-04 11164   0.498E-01    0.122E-02
RMM:   2    -0.274171865800E+02    0.65007E-06   -0.88543E-06  8759   0.123E-01    0.806E-03
RMM:   3    -0.274171855547E+02    0.10253E-05   -0.37944E-06  8805   0.712E-02    0.361E-03
RMM:   4    -0.274171855534E+02    0.12369E-08   -0.10092E-06  8254   0.178E-02    0.859E-04
RMM:   5    -0.274171855275E+02    0.25949E-07   -0.24966E-07  7740   0.164E-02
  49 F= -.27417186E+02 E0= -.27417186E+02  d E =0.347533E-06
       N       E                     dE             d eps       ncg     rms          rms(c)
DAV:   1    -0.274171855024E+02    0.51005E-07   -0.10876E-06 10348   0.209E-02    0.338E-04
RMM:   2    -0.274171854889E+02    0.13492E-07    0.31619E-08  5833   0.399E-03
  50 F= -.27417185E+02 E0= -.27417185E+02  d E =0.385489E-07
