       N       E                     dE             d eps       ncg     rms          rms(c)
DAV:   1    -0.274180511177E+02   -0.27418E+02   -0.48331E-02  9328   0.174E+01    0.638E-01
RMM:   2    -0.274171477104E+02    0.90341E-03   -0.49513E-02 11310   0.835E+00    0.666E-01
RMM:   3    -0.274111935473E+02    0.59542E-02   -0.85628E-03 10422   0.345E+00    0.303E-02
RMM:   4    -0.274112611127E+02   -0.67565E-04   -0.45188E-04 11906   0.353E-01    0.409E-02
RMM:   5    -0.274112604443E+02    0.66836E-06   -0.10229E-04 12211   0.158E-01    0.349E-02
RMM:   6    -0.274112478118E+02    0.12633E-04   -0.13425E-05 11153   0.120E-01    0.201E-02
RMM:   7    -0.274112417492E+02    0.60626E-05   -0.10078E-05 10918   0.106E-01    0.231E-03
RMM:   8    -0.274112426062E+02   -0.85701E-06   -0.79250E-06 11849   0.457E-02    0.113E-03
RMM:   9    -0.274112426943E+02   -0.88071E-07   -0.10701E-06 10277   0.310E-02    0.628E-04
RMM:  10    -0.274112427690E+02   -0.74684E-07   -0.37098E-07  9389   0.235E-02
   1 F= -.27411243E+02 E0= -.27411243E+02  d E =-.150695E-11
