 vasp.5.4.4.18Apr17-6-g9f103f2a35 (build Dec 13 2019 19:06:22) complex          
  
 executed on             LinuxIFC date 2021.07.02  01:01:05
 running on    4 total cores
 distrk:  each k-point on    2 cores,    2 groups
 distr:  one band on NCORES_PER_BAND=   1 cores,    2 groups


--------------------------------------------------------------------------------------------------------


 INCAR:
 POTCAR:    PAW_PBE Cu_sv_GW 05Dec2013            
 POTCAR:    PAW_PBE Al_GW 19Mar2012               
 POTCAR:    PAW_PBE O_GW 28Sep2005                

 ----------------------------------------------------------------------------- 
|                                                                             |
|           W    W    AA    RRRRR   N    N  II  N    N   GGGG   !!!           |
|           W    W   A  A   R    R  NN   N  II  NN   N  G    G  !!!           |
|           W    W  A    A  R    R  N N  N  II  N N  N  G       !!!           |
|           W WW W  AAAAAA  RRRRR   N  N N  II  N  N N  G  GGG   !            |
|           WW  WW  A    A  R   R   N   NN  II  N   NN  G    G                |
|           W    W  A    A  R    R  N    N  II  N    N   GGGG   !!!           |
|                                                                             |
|      You have enabled k-point parallelism (KPAR>1).                         |
|      This developmental code was originally  written by Paul Kent at ORNL,  |
|      and carefully double checked in Vienna.                                |
|      GW as well as linear response parallelism added by Martijn Marsman     |
|      and Georg Kresse.                                                      |
|      Carefully verify results versus KPAR=1.                                |
|      Report problems to Paul Kent and Vienna.                               |
|                                                                             |
 ----------------------------------------------------------------------------- 

 POTCAR:    PAW_PBE Cu_sv_GW 05Dec2013            
   VRHFIN =Cu: d10 p1                                                           
   LEXCH  = PE                                                                  
   EATOM  =  5382.7943 eV,  395.6242 Ry                                         
                                                                                
   TITEL  = PAW_PBE Cu_sv_GW 05Dec2013                                          
   LULTRA =        F    use ultrasoft PP ?                                      
   IUNSCR =        1    unscreen: 0-lin 1-nonlin 2-no                           
   RPACOR =    1.400    partial core radius                                     
   POMASS =   63.546; ZVAL   =   19.000    mass and valenz                      
   RCORE  =    1.900    outmost cutoff radius                                   
   RWIGS  =    2.100; RWIGS  =    1.111    wigner-seitz radius (au A)           
   ENMAX  =  391.688; ENMIN  =  293.766 eV                                      
   RCLOC  =    1.304    cutoff for local pot                                    
   LCOR   =        T    correct aug charges                                     
   LPAW   =        T    paw PP                                                  
   EAUG   =  982.892                                                            
   RMAX   =    1.950    core radius for proj-oper                               
   RAUG   =    1.300    factor for augmentation sphere                          
   RDEP   =    2.025    radius for radial grids                                 
   RDEPT  =    1.600    core radius for aug-charge                              
                                                                                
   Atomic configuration                                                         
    9 entries                                                                   
     n  l   j            E        occ.                                          
     1  0  0.50     -8850.2467   2.0000                                         
     2  0  0.50     -1062.3498   2.0000                                         
     2  1  1.50      -916.8226   6.0000                                         
     3  0  0.50      -114.6929   2.0000                                         
     4  0  0.50        -4.6097   1.0000                                         
     3  1  1.50       -72.1325   6.0000                                         
     3  1  1.50       -76.2144   0.0000                                         
     3  2  2.50        -5.0394  10.0000                                         
     4  3  2.50        -1.3606   0.0000                                         
   Description                                                                  
     l       E           TYP  RCUT    TYP  RCUT                                 
     0   -114.6929173     23  1.330                                             
     0     -4.6097111     23  1.700                                             
     0    204.0873900     23  1.330                                             
     1    -72.1324964     23  1.650                                             
     1    -76.2143949     23  1.650                                             
     1    136.0582600     23  1.650                                             
     2     -5.0393943     23  1.900                                             
     2     27.2116520     23  1.900                                             
     2    136.0582600     23  1.900                                             
     3     27.2116520     23  1.900                                             
     3    136.0582600     23  1.900                                             
  local pseudopotential read in
  partial core-charges read in
  partial kinetic energy density read in
  kinetic energy density of atom read in
  atomic valenz-charges read in
  non local Contribution for L=           0  read in
    real space projection operators read in
  non local Contribution for L=           0  read in
    real space projection operators read in
  non local Contribution for L=           0  read in
    real space projection operators read in
  non local Contribution for L=           1  read in
    real space projection operators read in
  non local Contribution for L=           1  read in
    real space projection operators read in
  non local Contribution for L=           1  read in
    real space projection operators read in
  non local Contribution for L=           2  read in
    real space projection operators read in
  non local Contribution for L=           2  read in
    real space projection operators read in
  non local Contribution for L=           2  read in
    real space projection operators read in
  non local Contribution for L=           3  read in
    real space projection operators read in
  non local Contribution for L=           3  read in
    real space projection operators read in
    PAW grid and wavefunctions read in
 
   number of l-projection  operators is LMAX  =          11
   number of lm-projection operators is LMMAX =          41
 
 POTCAR:    PAW_PBE Al_GW 19Mar2012               
   VRHFIN =Al: s2p1                                                             
   LEXCH  = PE                                                                  
   EATOM  =    53.5387 eV,    3.9350 Ry                                         
                                                                                
   TITEL  = PAW_PBE Al_GW 19Mar2012                                             
   LULTRA =        F    use ultrasoft PP ?                                      
   IUNSCR =        1    unscreen: 0-lin 1-nonlin 2-no                           
   RPACOR =    1.500    partial core radius                                     
   POMASS =   26.982; ZVAL   =    3.000    mass and valenz                      
   RCORE  =    2.000    outmost cutoff radius                                   
   RWIGS  =    2.000; RWIGS  =    1.058    wigner-seitz radius (au A)           
   ENMAX  =  240.300; ENMIN  =  180.225 eV                                      
   ICORE  =        3    local potential                                         
   LCOR   =        T    correct aug charges                                     
   LPAW   =        T    paw PP                                                  
   EAUG   =  482.059                                                            
   DEXC   =    0.000                                                            
   RMAX   =    2.051    core radius for proj-oper                               
   RAUG   =    1.300    factor for augmentation sphere                          
   RDEP   =    2.096    radius for radial grids                                 
   RDEPT  =    1.856    core radius for aug-charge                              
                                                                                
   Atomic configuration                                                         
    7 entries                                                                   
     n  l   j            E        occ.                                          
     1  0  0.50     -1511.1048   2.0000                                         
     2  0  0.50      -108.1629   2.0000                                         
     2  1  1.50       -69.6402   6.0000                                         
     3  0  0.50        -7.7528   2.0000                                         
     3  1  1.50        -2.7121   1.0000                                         
     3  2  2.50        -2.7212   0.0000                                         
     4  3  2.50        -2.7212   0.0000                                         
   Description                                                                  
     l       E           TYP  RCUT    TYP  RCUT                                 
     0     -7.7528455     23  1.900                                             
     0     68.0291300     23  1.900                                             
     1     -2.7120682     23  1.900                                             
     1     68.0291300     23  1.900                                             
     2     -1.3605826     23  1.900                                             
     2     81.6349560     23  1.900                                             
     3     74.8320430     23  2.000                                             
  local pseudopotential read in
  partial core-charges read in
  partial kinetic energy density read in
  kinetic energy density of atom read in
  atomic valenz-charges read in
  non local Contribution for L=           0  read in
    real space projection operators read in
  non local Contribution for L=           0  read in
    real space projection operators read in
  non local Contribution for L=           1  read in
    real space projection operators read in
  non local Contribution for L=           1  read in
    real space projection operators read in
  non local Contribution for L=           2  read in
    real space projection operators read in
  non local Contribution for L=           2  read in
    real space projection operators read in
    PAW grid and wavefunctions read in
 
   number of l-projection  operators is LMAX  =           6
   number of lm-projection operators is LMMAX =          18
 
 POTCAR:    PAW_PBE O_GW 28Sep2005                
   VRHFIN =O: s2p4                                                              
   LEXCH  = PE                                                                  
   EATOM  =   432.3788 eV,   31.7789 Ry                                         
                                                                                
   TITEL  = PAW_PBE O_GW 28Sep2005                                              
   LULTRA =        F    use ultrasoft PP ?                                      
   IUNSCR =        0    unscreen: 0-lin 1-nonlin 2-no                           
   RPACOR =    0.000    partial core radius                                     
   POMASS =   16.000; ZVAL   =    6.000    mass and valenz                      
   RCORE  =    1.520    outmost cutoff radius                                   
   RWIGS  =    1.550; RWIGS  =    0.820    wigner-seitz radius (au A)           
   ENMAX  =  414.635; ENMIN  =  310.976 eV                                      
   ICORE  =        2    local potential                                         
   LCOR   =        T    correct aug charges                                     
   LPAW   =        T    paw PP                                                  
   EAUG   =  605.392                                                            
   DEXC   =    0.000                                                            
   RMAX   =    1.553    core radius for proj-oper                               
   RAUG   =    1.300    factor for augmentation sphere                          
   RDEP   =    1.550    radius for radial grids                                 
   RDEPT  =    1.329    core radius for aug-charge                              
                                                                                
   Atomic configuration                                                         
    4 entries                                                                   
     n  l   j            E        occ.                                          
     1  0  0.50      -514.6923   2.0000                                         
     2  0  0.50       -23.9615   2.0000                                         
     2  1  0.50        -9.0305   4.0000                                         
     3  2  1.50        -9.5241   0.0000                                         
   Description                                                                  
     l       E           TYP  RCUT    TYP  RCUT                                 
     0    -23.9615316     23  1.200                                             
     0     81.6349560     23  1.200                                             
     1     -9.0304908     23  1.520                                             
     1     81.6349560     23  1.520                                             
     2     -9.5240782      7  1.500                                             
  local pseudopotential read in
  kinetic energy density of atom read in
  atomic valenz-charges read in
  non local Contribution for L=           0  read in
    real space projection operators read in
  non local Contribution for L=           0  read in
    real space projection operators read in
  non local Contribution for L=           1  read in
    real space projection operators read in
  non local Contribution for L=           1  read in
    real space projection operators read in
    PAW grid and wavefunctions read in
 
   number of l-projection  operators is LMAX  =           4
   number of lm-projection operators is LMMAX =           8
 

 ----------------------------------------------------------------------------- 
|                                                                             |
|  ADVICE TO THIS USER RUNNING 'VASP/VAMP'   (HEAR YOUR MASTER'S VOICE ...):  |
|                                                                             |
|      You enforced a specific xc-type in the INCAR file,                     |
|      a different type was found on the POTCAR file                          |
|          I HOPE YOU KNOW, WHAT YOU ARE  DOING                               |
|                                                                             |
 ----------------------------------------------------------------------------- 

  PAW_PBE Cu_sv_GW 05Dec2013            :
 energy of atom  1       EATOM=-5382.7943
 kinetic energy error for atom=    0.0943 (will be added to EATOM!!)
  PAW_PBE Al_GW 19Mar2012               :
 energy of atom  2       EATOM=  -53.5387
 kinetic energy error for atom=    0.0002 (will be added to EATOM!!)
  PAW_PBE O_GW 28Sep2005                :
 energy of atom  3       EATOM= -432.3788
 kinetic energy error for atom=    0.0194 (will be added to EATOM!!)
 
 
 POSCAR: CuAlO2 BenkoF84                         
  positions in direct lattice
  velocities in cartesian coordinates
 exchange correlation table for  LEXCH =       14
   RHO(1)=    0.500       N(1)  =     2000
   RHO(2)=  100.500       N(2)  =     4000
 


--------------------------------------------------------------------------------------------------------


 ion  position               nearest neighbor table
   1  0.000  0.000  0.000-   3 1.85   4 1.85
   2  0.500  0.500  0.500-   3 1.90   4 1.90   3 1.90   4 1.90   3 1.90   4 1.90
   3  0.110  0.110  0.110-   1 1.85   2 1.90   2 1.90   2 1.90
   4  0.890  0.890  0.890-   1 1.85   2 1.90   2 1.90   2 1.90
 
  LATTYP: Found a trigonal (rhomboedric) cell.
 ALAT       =     5.8620916233
 COS(alpha) =     0.8826491989
  
  Lattice vectors:
  
 A1 = (   1.4199747912,   0.8198228294,   5.6281151682)
 A2 = (  -1.4199747912,   0.8198228294,   5.6281151682)
 A3 = (  -0.0000000000,  -1.6396456489,   5.6281151682)


Analysis of symmetry for initial positions (statically):
=====================================================================
 Subroutine PRICEL returns:
 Original cell was already a primitive cell.
 

 Routine SETGRP: Setting up the symmetry group for a 
 trigonal (rhombohedral) supercell.


 Subroutine GETGRP returns: Found 12 space group operations
 (whereof 12 operations were pure point group operations)
 out of a pool of 12 trial point group operations.


The static configuration has the point symmetry D_3d.


Analysis of symmetry for dynamics (positions and initial velocities):
=====================================================================
 Subroutine PRICEL returns:
 Original cell was already a primitive cell.
 

 Routine SETGRP: Setting up the symmetry group for a 
 trigonal (rhombohedral) supercell.


 Subroutine GETGRP returns: Found 12 space group operations
 (whereof 12 operations were pure point group operations)
 out of a pool of 12 trial point group operations.


The dynamic configuration has the point symmetry D_3d.


 Subroutine INISYM returns: Found 12 space group operations
 (whereof 12 operations are pure point group operations),
 and found     1 'primitive' translations

 
 
 KPOINTS: CuMO2                                   

Automatic generation of k-mesh.
Space group operators:
 irot       det(A)        alpha          n_x          n_y          n_z        tau_x        tau_y        tau_z
    1     1.000000     0.000000     1.000000     0.000000     0.000000     0.000000     0.000000     0.000000
    2    -1.000000     0.000000     1.000000     0.000000     0.000000     0.000000     0.000000     0.000000
    3     1.000000   180.000000    -0.500000     0.866025    -0.000000     0.000000     0.000000     0.000000
    4    -1.000000   180.000000    -0.500000     0.866025    -0.000000     0.000000     0.000000     0.000000
    5     1.000000   120.000000     0.000000    -0.000000    -1.000000     0.000000     0.000000     0.000000
    6    -1.000000   120.000000     0.000000    -0.000000    -1.000000     0.000000     0.000000     0.000000
    7     1.000000   180.000000     1.000000     0.000000     0.000000     0.000000     0.000000     0.000000
    8    -1.000000   180.000000     1.000000     0.000000     0.000000     0.000000     0.000000     0.000000
    9     1.000000   120.000000     0.000000     0.000000     1.000000     0.000000     0.000000     0.000000
   10    -1.000000   120.000000     0.000000     0.000000     1.000000     0.000000     0.000000     0.000000
   11     1.000000   180.000000     0.500000     0.866025    -0.000000     0.000000     0.000000     0.000000
   12    -1.000000   180.000000     0.500000     0.866025    -0.000000     0.000000     0.000000     0.000000
 
 Subroutine IBZKPT returns following result:
 ===========================================
 
 Found    116 irreducible k-points:
 
 Following reciprocal coordinates:
            Coordinates               Weight
  0.000000  0.000000  0.000000      1.000000
  0.100000  0.000000 -0.000000      6.000000
  0.200000 -0.000000  0.000000      6.000000
  0.300000  0.000000 -0.000000      6.000000
  0.400000 -0.000000  0.000000      6.000000
  0.500000 -0.000000  0.000000      3.000000
  0.100000  0.100000  0.000000      6.000000
  0.200000  0.100000 -0.000000     12.000000
  0.300000  0.100000  0.000000     12.000000
  0.400000  0.100000  0.000000     12.000000
  0.500000  0.100000  0.000000     12.000000
 -0.400000  0.100000 -0.000000     12.000000
 -0.300000  0.100000  0.000000     12.000000
 -0.200000  0.100000  0.000000     12.000000
 -0.100000  0.100000  0.000000      6.000000
  0.200000  0.200000  0.000000      6.000000
  0.300000  0.200000  0.000000     12.000000
  0.400000  0.200000  0.000000     12.000000
  0.500000  0.200000 -0.000000     12.000000
 -0.400000  0.200000  0.000000     12.000000
 -0.300000  0.200000 -0.000000     12.000000
 -0.200000  0.200000  0.000000      6.000000
  0.300000  0.300000  0.000000      6.000000
  0.400000  0.300000 -0.000000     12.000000
  0.500000  0.300000  0.000000     12.000000
 -0.400000  0.300000  0.000000     12.000000
 -0.300000  0.300000  0.000000      6.000000
  0.400000  0.400000  0.000000      6.000000
  0.500000  0.400000  0.000000     12.000000
 -0.400000  0.400000  0.000000      6.000000
  0.500000  0.500000  0.000000      3.000000
  0.100000  0.100000  0.100000      2.000000
  0.200000  0.100000  0.100000      6.000000
  0.300000  0.100000  0.100000      6.000000
  0.400000  0.100000  0.100000      6.000000
  0.500000  0.100000  0.100000      6.000000
 -0.400000  0.100000  0.100000      6.000000
 -0.300000  0.100000  0.100000      6.000000
 -0.200000  0.100000  0.100000      6.000000
 -0.100000  0.100000  0.100000      6.000000
  0.200000  0.200000  0.100000      6.000000
  0.300000  0.200000  0.100000     12.000000
  0.400000  0.200000  0.100000     12.000000
  0.500000  0.200000  0.100000     12.000000
 -0.400000  0.200000  0.100000     12.000000
 -0.300000  0.200000  0.100000     12.000000
 -0.200000  0.200000  0.100000     12.000000
 -0.100000  0.200000  0.100000     12.000000
  0.300000  0.300000  0.100000      6.000000
  0.400000  0.300000  0.100000     12.000000
  0.500000  0.300000  0.100000     12.000000
 -0.400000  0.300000  0.100000     12.000000
 -0.300000  0.300000  0.100000     12.000000
 -0.200000  0.300000  0.100000     12.000000
 -0.100000  0.300000  0.100000     12.000000
  0.400000  0.400000  0.100000      6.000000
  0.500000  0.400000  0.100000     12.000000
 -0.400000  0.400000  0.100000     12.000000
 -0.300000  0.400000  0.100000     12.000000
 -0.200000  0.400000  0.100000     12.000000
 -0.100000  0.400000  0.100000     12.000000
  0.500000  0.500000  0.100000      6.000000
 -0.400000  0.500000  0.100000     12.000000
 -0.300000  0.500000  0.100000     12.000000
 -0.200000  0.500000  0.100000     12.000000
 -0.100000  0.500000  0.100000      6.000000
 -0.400000 -0.400000  0.100000      6.000000
 -0.300000 -0.400000  0.100000     12.000000
 -0.200000 -0.400000  0.100000     12.000000
 -0.300000 -0.300000  0.100000      6.000000
 -0.200000 -0.300000  0.100000     12.000000
 -0.200000 -0.200000  0.100000      6.000000
  0.200000  0.200000  0.200000      2.000000
  0.300000  0.200000  0.200000      6.000000
  0.400000  0.200000  0.200000      6.000000
  0.500000  0.200000  0.200000      6.000000
 -0.400000  0.200000  0.200000      6.000000
 -0.300000  0.200000  0.200000      6.000000
 -0.200000  0.200000  0.200000      6.000000
  0.300000  0.300000  0.200000      6.000000
  0.400000  0.300000  0.200000     12.000000
  0.500000  0.300000  0.200000     12.000000
 -0.400000  0.300000  0.200000     12.000000
 -0.300000  0.300000  0.200000     12.000000
 -0.200000  0.300000  0.200000     12.000000
  0.400000  0.400000  0.200000      6.000000
  0.500000  0.400000  0.200000     12.000000
 -0.400000  0.400000  0.200000     12.000000
 -0.300000  0.400000  0.200000     12.000000
 -0.200000  0.400000  0.200000     12.000000
  0.500000  0.500000  0.200000      6.000000
 -0.400000  0.500000  0.200000     12.000000
 -0.300000  0.500000  0.200000     12.000000
 -0.200000  0.500000  0.200000      6.000000
 -0.400000 -0.400000  0.200000      6.000000
 -0.300000 -0.400000  0.200000     12.000000
 -0.300000 -0.300000  0.200000      6.000000
  0.300000  0.300000  0.300000      2.000000
  0.400000  0.300000  0.300000      6.000000
  0.500000  0.300000  0.300000      6.000000
 -0.400000  0.300000  0.300000      6.000000
 -0.300000  0.300000  0.300000      6.000000
  0.400000  0.400000  0.300000      6.000000
  0.500000  0.400000  0.300000     12.000000
 -0.400000  0.400000  0.300000     12.000000
 -0.300000  0.400000  0.300000     12.000000
  0.500000  0.500000  0.300000      6.000000
 -0.400000  0.500000  0.300000     12.000000
 -0.300000  0.500000  0.300000      6.000000
 -0.400000 -0.400000  0.300000      6.000000
  0.400000  0.400000  0.400000      2.000000
  0.500000  0.400000  0.400000      6.000000
 -0.400000  0.400000  0.400000      6.000000
  0.500000  0.500000  0.400000      6.000000
 -0.400000  0.500000  0.400000      6.000000
  0.500000  0.500000  0.500000      1.000000
 
 Following cartesian coordinates:
            Coordinates               Weight
  0.000000  0.000000  0.000000      1.000000
  0.035212  0.020330  0.005923      6.000000
  0.070424  0.040659  0.011845      6.000000
  0.105636  0.060989  0.017768      6.000000
  0.140848  0.081318  0.023691      6.000000
  0.176059  0.101648  0.029613      3.000000
  0.000000  0.040659  0.011845      6.000000
  0.035212  0.060989  0.017768     12.000000
  0.070424  0.081318  0.023691     12.000000
  0.105636  0.101648  0.029613     12.000000
  0.140848  0.121978  0.035536     12.000000
 -0.176059 -0.060989 -0.017768     12.000000
 -0.140848 -0.040659 -0.011845     12.000000
 -0.105636 -0.020330 -0.005923     12.000000
 -0.070424  0.000000 -0.000000      6.000000
 -0.000000  0.081318  0.023691      6.000000
  0.035212  0.101648  0.029613     12.000000
  0.070424  0.121978  0.035536     12.000000
  0.105636  0.142307  0.041459     12.000000
 -0.211271 -0.040659 -0.011845     12.000000
 -0.176059 -0.020330 -0.005923     12.000000
 -0.140848  0.000000 -0.000000      6.000000
  0.000000  0.121978  0.035536      6.000000
  0.035212  0.142307  0.041459     12.000000
  0.070424  0.162637  0.047381     12.000000
 -0.246483 -0.020330 -0.005923     12.000000
 -0.211271  0.000000 -0.000000      6.000000
 -0.000000  0.162637  0.047381      6.000000
  0.035212  0.182966  0.053304     12.000000
 -0.281695  0.000000 -0.000000      6.000000
  0.000000  0.203296  0.059226      3.000000
  0.000000  0.000000  0.017768      2.000000
  0.035212  0.020330  0.023691      6.000000
  0.070424  0.040659  0.029613      6.000000
  0.105636  0.060989  0.035536      6.000000
  0.140848  0.081318  0.041459      6.000000
 -0.176059 -0.101648 -0.011845      6.000000
 -0.140848 -0.081318 -0.005923      6.000000
 -0.105636 -0.060989  0.000000      6.000000
 -0.070424 -0.040659  0.005923      6.000000
  0.000000  0.040659  0.029613      6.000000
  0.035212  0.060989  0.035536     12.000000
  0.070424  0.081318  0.041459     12.000000
  0.105636  0.101648  0.047381     12.000000
 -0.211271 -0.081318 -0.005923     12.000000
 -0.176059 -0.060989  0.000000     12.000000
 -0.140848 -0.040659  0.005923     12.000000
 -0.105636 -0.020330  0.011845     12.000000
  0.000000  0.081318  0.041459      6.000000
  0.035212  0.101648  0.047381     12.000000
  0.070424  0.121978  0.053304     12.000000
 -0.246483 -0.060989  0.000000     12.000000
 -0.211271 -0.040659  0.005923     12.000000
 -0.176059 -0.020330  0.011845     12.000000
 -0.140848  0.000000  0.017768     12.000000
 -0.000000  0.121978  0.053304      6.000000
  0.035212  0.142307  0.059226     12.000000
 -0.281695 -0.040659  0.005923     12.000000
 -0.246483 -0.020330  0.011845     12.000000
 -0.211271  0.000000  0.017768     12.000000
 -0.176059  0.020330  0.023691     12.000000
  0.000000  0.162637  0.065149      6.000000
 -0.316907 -0.020330  0.011845     12.000000
 -0.281695  0.000000  0.017768     12.000000
 -0.246483  0.020330  0.023691     12.000000
 -0.211271  0.040659  0.029613      6.000000
  0.000000 -0.203296 -0.041459      6.000000
  0.035212 -0.182966 -0.035536     12.000000
  0.070424 -0.162637 -0.029613     12.000000
  0.000000 -0.162637 -0.029613      6.000000
  0.035212 -0.142307 -0.023691     12.000000
  0.000000 -0.121978 -0.017768      6.000000
  0.000000  0.000000  0.035536      2.000000
  0.035212  0.020330  0.041459      6.000000
  0.070424  0.040659  0.047381      6.000000
  0.105636  0.060989  0.053304      6.000000
 -0.211271 -0.121978  0.000000      6.000000
 -0.176059 -0.101648  0.005923      6.000000
 -0.140848 -0.081318  0.011845      6.000000
  0.000000  0.040659  0.047381      6.000000
  0.035212  0.060989  0.053304     12.000000
  0.070424  0.081318  0.059226     12.000000
 -0.246483 -0.101648  0.005923     12.000000
 -0.211271 -0.081318  0.011845     12.000000
 -0.176059 -0.060989  0.017768     12.000000
 -0.000000  0.081318  0.059226      6.000000
  0.035212  0.101648  0.065149     12.000000
 -0.281695 -0.081318  0.011845     12.000000
 -0.246483 -0.060989  0.017768     12.000000
 -0.211271 -0.040659  0.023691     12.000000
  0.000000  0.121978  0.071072      6.000000
 -0.316907 -0.060989  0.017768     12.000000
 -0.281695 -0.040659  0.023691     12.000000
 -0.246483 -0.020330  0.029613      6.000000
  0.000000 -0.243955 -0.035536      6.000000
  0.035212 -0.223626 -0.029613     12.000000
  0.000000 -0.203296 -0.023691      6.000000
  0.000000  0.000000  0.053304      2.000000
  0.035212  0.020330  0.059226      6.000000
  0.070424  0.040659  0.065149      6.000000
 -0.246483 -0.142307  0.011845      6.000000
 -0.211271 -0.121978  0.017768      6.000000
 -0.000000  0.040659  0.065149      6.000000
  0.035212  0.060989  0.071072     12.000000
 -0.281695 -0.121978  0.017768     12.000000
 -0.246483 -0.101648  0.023691     12.000000
  0.000000  0.081318  0.076994      6.000000
 -0.316907 -0.101648  0.023691     12.000000
 -0.281695 -0.081318  0.029613      6.000000
  0.000000 -0.284614 -0.029613      6.000000
  0.000000  0.000000  0.071072      2.000000
  0.035212  0.020330  0.076994      6.000000
 -0.281695 -0.162637  0.023691      6.000000
  0.000000  0.040659  0.082917      6.000000
 -0.316907 -0.142307  0.029613      6.000000
  0.000000  0.000000  0.088840      1.000000
 


--------------------------------------------------------------------------------------------------------




 Dimension of arrays:
   k-points           NKPTS =    116   k-points in BZ     NKDIM =    116   number of bands    NBANDS=     36
   number of dos      NEDOS =    301   number of ions     NIONS =      4
   non local maximal  LDIM  =     11   non local SUM 2l+1 LMDIM =     41
   total plane-waves  NPLWV = 110592
   max r-space proj   IRMAX =      1   max aug-charges    IRDMAX= 109678
   dimension x,y,z NGX =    48 NGY =   48 NGZ =   48
   dimension x,y,z NGXF=    96 NGYF=   96 NGZF=   96
   support grid    NGXF=    96 NGYF=   96 NGZF=   96
   ions per type =               1   1   2
   NGX,Y,Z   is equivalent  to a cutoff of  13.61, 13.61, 13.61 a.u.
   NGXF,Y,Z  is equivalent  to a cutoff of  27.23, 27.23, 27.23 a.u.

 SYSTEM =  unknown system                          
 POSCAR =  CuAlO2 BenkoF84                         

 Startparameter for this run:
   NWRITE =      2    write-flag & timer
   PREC   = accura    normal or accurate (medium, high low for compatibility)
   ISTART =      1    job   : 0-new  1-cont  2-samecut
   ICHARG =      0    charge: 1-file 2-atom 10-const
   ISPIN  =      1    spin polarized calculation?
   LNONCOLLINEAR =      F non collinear calculations
   LSORBIT =      F    spin-orbit coupling
   INIWAV =      1    electr: 0-lowe 1-rand  2-diag
   LASPH  =      F    aspherical Exc in radial PAW
   METAGGA=      F    non-selfconsistent MetaGGA calc.

 Electronic Relaxation 1
   ENCUT  =  550.0 eV  40.42 Ry    6.36 a.u.  11.21 11.21 11.21*2*pi/ulx,y,z
   ENINI  =  550.0     initial cutoff
   ENAUG  =  982.9 eV  augmentation charge cutoff
   NELM   =     60;   NELMIN=  2; NELMDL=  0     # of ELM steps 
   EDIFF  = 0.1E-06   stopping-criterion for ELM
   LREAL  =      F    real-space projection
   NLSPLINE    = F    spline interpolate recip. space projectors
   LCOMPAT=      F    compatible to vasp.4.4
   GGA_COMPAT  = T    GGA compatible to vasp.4.4-vasp.4.6
   LMAXPAW     = -100 max onsite density
   LMAXMIX     =    2 max onsite mixed and CHGCAR
   VOSKOWN=      0    Vosko Wilk Nusair interpolation
   ROPT   =    0.00000   0.00000   0.00000
 Ionic relaxation
   EDIFFG = 0.1E-05   stopping-criterion for IOM
   NSW    =      0    number of steps for IOM
   NBLOCK =      1;   KBLOCK =      1    inner block; outer block 
   IBRION =     -1    ionic relax: 0-MD 1-quasi-New 2-CG
   NFREE  =      0    steps in history (QN), initial steepest desc. (CG)
   ISIF   =      2    stress and relaxation
   IWAVPR =     10    prediction:  0-non 1-charg 2-wave 3-comb
   ISYM   =      2    0-nonsym 1-usesym 2-fastsym
   LCORR  =      T    Harris-Foulkes like correction to forces

   POTIM  = 0.5000    time-step for ionic-motion
   TEIN   =    0.0    initial temperature
   TEBEG  =    0.0;   TEEND  =   0.0 temperature during run
   SMASS  =  -3.00    Nose mass-parameter (am)
   estimated Nose-frequenzy (Omega)   =  0.10E-29 period in steps =****** mass=  -0.785E-27a.u.
   SCALEE = 1.0000    scale energy and forces
   NPACO  =    256;   APACO  = 16.0  distance and # of slots for P.C.
   PSTRESS=    0.0 pullay stress

  Mass of Ions in am
   POMASS =  63.55 26.98 16.00
  Ionic Valenz
   ZVAL   =  19.00  3.00  6.00
  Atomic Wigner-Seitz radii
   RWIGS  =  -1.00 -1.00 -1.00
  virtual crystal weights 
   VCA    =   1.00  1.00  1.00
   NELECT =      34.0000    total number of electrons
   NUPDOWN=      -1.0000    fix difference up-down

 DOS related values:
   EMIN   =  10.00;   EMAX   =-10.00  energy-range for DOS
   EFERMI =   0.00
   ISMEAR =     0;   SIGMA  =   0.20  broadening in eV -4-tet -1-fermi 0-gaus

 Electronic relaxation 2 (details)
   IALGO  =     68    algorithm
   LDIAG  =      T    sub-space diagonalisation (order eigenvalues)
   LSUBROT=      F    optimize rotation matrix (better conditioning)
   TURBO    =      0    0=normal 1=particle mesh
   IRESTART =      0    0=no restart 2=restart with 2 vectors
   NREBOOT  =      0    no. of reboots
   NMIN     =      0    reboot dimension
   EREF     =   0.00    reference energy to select bands
   IMIX   =      4    mixing-type and parameters
     AMIX     =   0.40;   BMIX     =  1.00
     AMIX_MAG =   1.60;   BMIX_MAG =  1.00
     AMIN     =   0.10
     WC   =   100.;   INIMIX=   1;  MIXPRE=   1;  MAXMIX= -45

 Intra band minimization:
   WEIMIN = 0.0000     energy-eigenvalue tresh-hold
   EBREAK =  0.69E-09  absolut break condition
   DEPER  =   0.30     relativ break condition  

   TIME   =   0.40     timestep for ELM

  volume/ion in A,a.u.               =       9.83        66.32
  Fermi-wavevector in a.u.,A,eV,Ry     =   1.559778  2.947553 33.101724  2.432908
  Thomas-Fermi vector in A             =   2.663087
 
 Write flags
   LWAVE        =      T    write WAVECAR
   LDOWNSAMPLE  =      F    k-point downsampling of WAVECAR
   LCHARG       =      T    write CHGCAR
   LVTOT        =      F    write LOCPOT, total local potential
   LVHAR        =      F    write LOCPOT, Hartree potential only
   LELF         =      F    write electronic localiz. function (ELF)
   LORBIT       =      0    0 simple, 1 ext, 2 COOP (PROOUT), +10 PAW based schemes


 Dipole corrections
   LMONO  =      F    monopole corrections only (constant potential shift)
   LDIPOL =      F    correct potential (dipole corrections)
   IDIPOL =      0    1-x, 2-y, 3-z, 4-all directions 
   EPSILON=  1.0000000 bulk dielectric constant

 Exchange correlation treatment:
   GGA     =    PS    GGA type
   LEXCH   =    14    internal setting for exchange type
   VOSKOWN=      0    Vosko Wilk Nusair interpolation
   LHFCALC =     F    Hartree Fock is set to
   LHFONE  =     F    Hartree Fock one center treatment
   AEXX    =    0.0000 exact exchange contribution

 Linear response parameters
   LEPSILON=     F    determine dielectric tensor
   LRPA    =     F    only Hartree local field effects (RPA)
   LNABLA  =     F    use nabla operator in PAW spheres
   LVEL    =     F    velocity operator in full k-point grid
   LINTERFAST=   F  fast interpolation
   KINTER  =     0    interpolate to denser k-point grid
   CSHIFT  =0.1000    complex shift for real part using Kramers Kronig
   OMEGAMAX=  -1.0    maximum frequency
   DEG_THRESHOLD= 0.2000000E-02 threshold for treating states as degnerate
   RTIME   =   -0.100 relaxation time in fs
  (WPLASMAI=    0.000 imaginary part of plasma frequency in eV, 0.658/RTIME)
   DFIELD  = 0.0000000 0.0000000 0.0000000 field for delta impulse in time
 
 Orbital magnetization related:
   ORBITALMAG=     F  switch on orbital magnetization
   LCHIMAG   =     F  perturbation theory with respect to B field
   DQ        =  0.001000  dq finite difference perturbation B field
   LLRAUG    =     F  two centre corrections for induced B field



--------------------------------------------------------------------------------------------------------


 Static calculation
 charge density and potential will be updated during run
 non-spin polarized calculation
 RMM-DIIS sequential band-by-band and
  variant of blocked Davidson during initial phase
 perform sub-space diagonalisation
    before iterative eigenvector-optimisation
 modified Broyden-mixing scheme, WC =      100.0
 initial mixing is a Kerker type mixing with AMIX =  0.4000 and BMIX =      1.0000
 Hartree-type preconditioning will be used
 using additional bands           19
 reciprocal scheme for non local part
 use partial core corrections
 calculate Harris-corrections to forces 
   (improved forces if not selfconsistent)
 use gradient corrections 
 use of overlap-Matrix (Vanderbilt PP)
 Gauss-broadening in eV      SIGMA  =   0.20


--------------------------------------------------------------------------------------------------------


  energy-cutoff  :      550.00
  volume of cell :       39.31
      direct lattice vectors                 reciprocal lattice vectors
     1.419974791  0.819822829  5.628115168     0.352118927  0.203295958  0.059226459
    -1.419974791  0.819822829  5.628115168    -0.352118927  0.203295958  0.059226459
    -0.000000000 -1.639645649  5.628115168     0.000000000 -0.406591916  0.059226459

  length of vectors
     5.862091625  5.862091625  5.862091623     0.410882902  0.410882902  0.410882902


 
 old parameters found on file WAVECAR:
  energy-cutoff  :      550.00
  volume of cell :       40.04
      direct lattice vectors                 reciprocal lattice vectors
     1.430123640  0.825682270  5.650699250     0.349620121  0.201853271  0.058989749
    -1.430123640  0.825682270  5.650699250    -0.349620121  0.201853271  0.058989749
     0.000000000 -1.651364530  5.650699250    -0.000000000 -0.403706543  0.058989750

  length of vectors

 
 k-points in units of 2pi/SCALE and weight: CuMO2                                   
   0.00000000  0.00000000  0.00000000       0.001
   0.03521189  0.02032960  0.00592265       0.006
   0.07042379  0.04065919  0.01184529       0.006
   0.10563568  0.06098879  0.01776794       0.006
   0.14084757  0.08131838  0.02369058       0.006
   0.17605946  0.10164798  0.02961323       0.003
   0.00000000  0.04065919  0.01184529       0.006
   0.03521189  0.06098879  0.01776794       0.012
   0.07042379  0.08131838  0.02369058       0.012
   0.10563568  0.10164798  0.02961323       0.012
   0.14084757  0.12197757  0.03553588       0.012
  -0.17605946 -0.06098879 -0.01776794       0.012
  -0.14084757 -0.04065919 -0.01184529       0.012
  -0.10563568 -0.02032960 -0.00592265       0.012
  -0.07042379 -0.00000000 -0.00000000       0.006
  -0.00000000  0.08131838  0.02369058       0.006
   0.03521189  0.10164798  0.02961323       0.012
   0.07042379  0.12197757  0.03553588       0.012
   0.10563568  0.14230717  0.04145852       0.012
  -0.21127136 -0.04065919 -0.01184529       0.012
  -0.17605946 -0.02032960 -0.00592265       0.012
  -0.14084757  0.00000000 -0.00000000       0.006
  -0.00000000  0.12197757  0.03553588       0.006
   0.03521189  0.14230717  0.04145852       0.012
   0.07042379  0.16263677  0.04738117       0.012
  -0.24648325 -0.02032960 -0.00592265       0.012
  -0.21127136  0.00000000 -0.00000000       0.006
  -0.00000000  0.16263677  0.04738117       0.006
   0.03521189  0.18296636  0.05330381       0.012
  -0.28169514  0.00000000 -0.00000000       0.006
  -0.00000000  0.20329596  0.05922646       0.003
   0.00000000  0.00000000  0.01776794       0.002
   0.03521189  0.02032960  0.02369058       0.006
   0.07042379  0.04065919  0.02961323       0.006
   0.10563568  0.06098879  0.03553588       0.006
   0.14084757  0.08131838  0.04145852       0.006
  -0.17605946 -0.10164798 -0.01184529       0.006
  -0.14084757 -0.08131838 -0.00592265       0.006
  -0.10563568 -0.06098879  0.00000000       0.006
  -0.07042379 -0.04065919  0.00592265       0.006
  -0.00000000  0.04065919  0.02961323       0.006
   0.03521189  0.06098879  0.03553588       0.012
   0.07042379  0.08131838  0.04145852       0.012
   0.10563568  0.10164798  0.04738117       0.012
  -0.21127136 -0.08131838 -0.00592265       0.012
  -0.17605946 -0.06098879  0.00000000       0.012
  -0.14084757 -0.04065919  0.00592265       0.012
  -0.10563568 -0.02032960  0.01184529       0.012
   0.00000000  0.08131838  0.04145852       0.006
   0.03521189  0.10164798  0.04738117       0.012
   0.07042379  0.12197757  0.05330381       0.012
  -0.24648325 -0.06098879  0.00000000       0.012
  -0.21127136 -0.04065919  0.00592265       0.012
  -0.17605946 -0.02032960  0.01184529       0.012
  -0.14084757  0.00000000  0.01776794       0.012
  -0.00000000  0.12197757  0.05330381       0.006
   0.03521189  0.14230717  0.05922646       0.012
  -0.28169514 -0.04065919  0.00592265       0.012
  -0.24648325 -0.02032960  0.01184529       0.012
  -0.21127136  0.00000000  0.01776794       0.012
  -0.17605946  0.02032960  0.02369058       0.012
  -0.00000000  0.16263677  0.06514911       0.006
  -0.31690703 -0.02032960  0.01184529       0.012
  -0.28169514  0.00000000  0.01776794       0.012
  -0.24648325  0.02032960  0.02369058       0.012
  -0.21127136  0.04065919  0.02961323       0.006
   0.00000000 -0.20329596 -0.04145852       0.006
   0.03521189 -0.18296636 -0.03553588       0.012
   0.07042379 -0.16263677 -0.02961323       0.012
  -0.00000000 -0.16263677 -0.02961323       0.006
   0.03521189 -0.14230717 -0.02369058       0.012
   0.00000000 -0.12197757 -0.01776794       0.006
  -0.00000000  0.00000000  0.03553588       0.002
   0.03521189  0.02032960  0.04145852       0.006
   0.07042379  0.04065919  0.04738117       0.006
   0.10563568  0.06098879  0.05330381       0.006
  -0.21127136 -0.12197757  0.00000000       0.006
  -0.17605946 -0.10164798  0.00592265       0.006
  -0.14084757 -0.08131838  0.01184529       0.006
   0.00000000  0.04065919  0.04738117       0.006
   0.03521189  0.06098879  0.05330381       0.012
   0.07042379  0.08131838  0.05922646       0.012
  -0.24648325 -0.10164798  0.00592265       0.012
  -0.21127136 -0.08131838  0.01184529       0.012
  -0.17605946 -0.06098879  0.01776794       0.012
  -0.00000000  0.08131838  0.05922646       0.006
   0.03521189  0.10164798  0.06514911       0.012
  -0.28169514 -0.08131838  0.01184529       0.012
  -0.24648325 -0.06098879  0.01776794       0.012
  -0.21127136 -0.04065919  0.02369058       0.012
  -0.00000000  0.12197757  0.07107175       0.006
  -0.31690703 -0.06098879  0.01776794       0.012
  -0.28169514 -0.04065919  0.02369058       0.012
  -0.24648325 -0.02032960  0.02961323       0.006
   0.00000000 -0.24395515 -0.03553588       0.006
   0.03521189 -0.22362555 -0.02961323       0.012
   0.00000000 -0.20329596 -0.02369058       0.006
  -0.00000000  0.00000000  0.05330381       0.002
   0.03521189  0.02032960  0.05922646       0.006
   0.07042379  0.04065919  0.06514911       0.006
  -0.24648325 -0.14230717  0.01184529       0.006
  -0.21127136 -0.12197757  0.01776794       0.006
  -0.00000000  0.04065919  0.06514911       0.006
   0.03521189  0.06098879  0.07107175       0.012
  -0.28169514 -0.12197757  0.01776794       0.012
  -0.24648325 -0.10164798  0.02369058       0.012
  -0.00000000  0.08131838  0.07699440       0.006
  -0.31690703 -0.10164798  0.02369058       0.012
  -0.28169514 -0.08131838  0.02961323       0.006
   0.00000000 -0.28461434 -0.02961323       0.006
  -0.00000000  0.00000000  0.07107175       0.002
   0.03521189  0.02032960  0.07699440       0.006
  -0.28169514 -0.16263677  0.02369058       0.006
  -0.00000000  0.04065919  0.08291704       0.006
  -0.31690703 -0.14230717  0.02961323       0.006
  -0.00000000  0.00000000  0.08883969       0.001
 
 k-points in reciprocal lattice and weights: CuMO2                                   
   0.00000000  0.00000000  0.00000000       0.001
   0.10000000  0.00000000 -0.00000000       0.006
   0.20000000 -0.00000000  0.00000000       0.006
   0.30000000  0.00000000 -0.00000000       0.006
   0.40000000 -0.00000000  0.00000000       0.006
   0.50000000 -0.00000000  0.00000000       0.003
   0.10000000  0.10000000  0.00000000       0.006
   0.20000000  0.10000000 -0.00000000       0.012
   0.30000000  0.10000000  0.00000000       0.012
   0.40000000  0.10000000  0.00000000       0.012
   0.50000000  0.10000000  0.00000000       0.012
  -0.40000000  0.10000000 -0.00000000       0.012
  -0.30000000  0.10000000  0.00000000       0.012
  -0.20000000  0.10000000  0.00000000       0.012
  -0.10000000  0.10000000  0.00000000       0.006
   0.20000000  0.20000000  0.00000000       0.006
   0.30000000  0.20000000  0.00000000       0.012
   0.40000000  0.20000000  0.00000000       0.012
   0.50000000  0.20000000 -0.00000000       0.012
  -0.40000000  0.20000000  0.00000000       0.012
  -0.30000000  0.20000000 -0.00000000       0.012
  -0.20000000  0.20000000  0.00000000       0.006
   0.30000000  0.30000000  0.00000000       0.006
   0.40000000  0.30000000 -0.00000000       0.012
   0.50000000  0.30000000  0.00000000       0.012
  -0.40000000  0.30000000  0.00000000       0.012
  -0.30000000  0.30000000  0.00000000       0.006
   0.40000000  0.40000000  0.00000000       0.006
   0.50000000  0.40000000  0.00000000       0.012
  -0.40000000  0.40000000  0.00000000       0.006
   0.50000000  0.50000000  0.00000000       0.003
   0.10000000  0.10000000  0.10000000       0.002
   0.20000000  0.10000000  0.10000000       0.006
   0.30000000  0.10000000  0.10000000       0.006
   0.40000000  0.10000000  0.10000000       0.006
   0.50000000  0.10000000  0.10000000       0.006
  -0.40000000  0.10000000  0.10000000       0.006
  -0.30000000  0.10000000  0.10000000       0.006
  -0.20000000  0.10000000  0.10000000       0.006
  -0.10000000  0.10000000  0.10000000       0.006
   0.20000000  0.20000000  0.10000000       0.006
   0.30000000  0.20000000  0.10000000       0.012
   0.40000000  0.20000000  0.10000000       0.012
   0.50000000  0.20000000  0.10000000       0.012
  -0.40000000  0.20000000  0.10000000       0.012
  -0.30000000  0.20000000  0.10000000       0.012
  -0.20000000  0.20000000  0.10000000       0.012
  -0.10000000  0.20000000  0.10000000       0.012
   0.30000000  0.30000000  0.10000000       0.006
   0.40000000  0.30000000  0.10000000       0.012
   0.50000000  0.30000000  0.10000000       0.012
  -0.40000000  0.30000000  0.10000000       0.012
  -0.30000000  0.30000000  0.10000000       0.012
  -0.20000000  0.30000000  0.10000000       0.012
  -0.10000000  0.30000000  0.10000000       0.012
   0.40000000  0.40000000  0.10000000       0.006
   0.50000000  0.40000000  0.10000000       0.012
  -0.40000000  0.40000000  0.10000000       0.012
  -0.30000000  0.40000000  0.10000000       0.012
  -0.20000000  0.40000000  0.10000000       0.012
  -0.10000000  0.40000000  0.10000000       0.012
   0.50000000  0.50000000  0.10000000       0.006
  -0.40000000  0.50000000  0.10000000       0.012
  -0.30000000  0.50000000  0.10000000       0.012
  -0.20000000  0.50000000  0.10000000       0.012
  -0.10000000  0.50000000  0.10000000       0.006
  -0.40000000 -0.40000000  0.10000000       0.006
  -0.30000000 -0.40000000  0.10000000       0.012
  -0.20000000 -0.40000000  0.10000000       0.012
  -0.30000000 -0.30000000  0.10000000       0.006
  -0.20000000 -0.30000000  0.10000000       0.012
  -0.20000000 -0.20000000  0.10000000       0.006
   0.20000000  0.20000000  0.20000000       0.002
   0.30000000  0.20000000  0.20000000       0.006
   0.40000000  0.20000000  0.20000000       0.006
   0.50000000  0.20000000  0.20000000       0.006
  -0.40000000  0.20000000  0.20000000       0.006
  -0.30000000  0.20000000  0.20000000       0.006
  -0.20000000  0.20000000  0.20000000       0.006
   0.30000000  0.30000000  0.20000000       0.006
   0.40000000  0.30000000  0.20000000       0.012
   0.50000000  0.30000000  0.20000000       0.012
  -0.40000000  0.30000000  0.20000000       0.012
  -0.30000000  0.30000000  0.20000000       0.012
  -0.20000000  0.30000000  0.20000000       0.012
   0.40000000  0.40000000  0.20000000       0.006
   0.50000000  0.40000000  0.20000000       0.012
  -0.40000000  0.40000000  0.20000000       0.012
  -0.30000000  0.40000000  0.20000000       0.012
  -0.20000000  0.40000000  0.20000000       0.012
   0.50000000  0.50000000  0.20000000       0.006
  -0.40000000  0.50000000  0.20000000       0.012
  -0.30000000  0.50000000  0.20000000       0.012
  -0.20000000  0.50000000  0.20000000       0.006
  -0.40000000 -0.40000000  0.20000000       0.006
  -0.30000000 -0.40000000  0.20000000       0.012
  -0.30000000 -0.30000000  0.20000000       0.006
   0.30000000  0.30000000  0.30000000       0.002
   0.40000000  0.30000000  0.30000000       0.006
   0.50000000  0.30000000  0.30000000       0.006
  -0.40000000  0.30000000  0.30000000       0.006
  -0.30000000  0.30000000  0.30000000       0.006
   0.40000000  0.40000000  0.30000000       0.006
   0.50000000  0.40000000  0.30000000       0.012
  -0.40000000  0.40000000  0.30000000       0.012
  -0.30000000  0.40000000  0.30000000       0.012
   0.50000000  0.50000000  0.30000000       0.006
  -0.40000000  0.50000000  0.30000000       0.012
  -0.30000000  0.50000000  0.30000000       0.006
  -0.40000000 -0.40000000  0.30000000       0.006
   0.40000000  0.40000000  0.40000000       0.002
   0.50000000  0.40000000  0.40000000       0.006
  -0.40000000  0.40000000  0.40000000       0.006
   0.50000000  0.50000000  0.40000000       0.006
  -0.40000000  0.50000000  0.40000000       0.006
   0.50000000  0.50000000  0.50000000       0.001
 
 position of ions in fractional coordinates (direct lattice) 
   0.00000000  0.00000000  0.00000000
   0.50000000  0.50000000  0.50000000
   0.10956715  0.10956715  0.10956715
   0.89043285  0.89043285  0.89043285
 
 position of ions in cartesian coordinates  (Angst):
   0.00000000  0.00000000  0.00000000
  -0.00000000  0.00000000  8.44217275
  -0.00000000  0.00000000  1.84996962
  -0.00000000  0.00000001 15.03437589
 


--------------------------------------------------------------------------------------------------------


 k-point  1 :   0.0000 0.0000 0.0000  plane waves:    1191
 k-point  2 :   0.1000 0.0000-0.0000  plane waves:    1182
 k-point  3 :   0.2000-0.0000 0.0000  plane waves:    1159
 k-point  4 :   0.3000 0.0000-0.0000  plane waves:    1150
 k-point  5 :   0.4000-0.0000 0.0000  plane waves:    1142
 k-point  6 :   0.5000-0.0000 0.0000  plane waves:    1140
 k-point  7 :   0.1000 0.1000 0.0000  plane waves:    1176
 k-point  8 :   0.2000 0.1000-0.0000  plane waves:    1159
 k-point  9 :   0.3000 0.1000 0.0000  plane waves:    1161
 k-point 10 :   0.4000 0.1000 0.0000  plane waves:    1150
 k-point 11 :   0.5000 0.1000 0.0000  plane waves:    1146
 k-point 12 :  -0.4000 0.1000-0.0000  plane waves:    1146
 k-point 13 :  -0.3000 0.1000 0.0000  plane waves:    1144
 k-point 14 :  -0.2000 0.1000 0.0000  plane waves:    1154
 k-point 15 :  -0.1000 0.1000 0.0000  plane waves:    1161
 k-point 16 :   0.2000 0.2000 0.0000  plane waves:    1152
 k-point 17 :   0.3000 0.2000 0.0000  plane waves:    1148
 k-point 18 :   0.4000 0.2000 0.0000  plane waves:    1150
 k-point 19 :   0.5000 0.2000-0.0000  plane waves:    1150
 k-point 20 :  -0.4000 0.2000 0.0000  plane waves:    1147
 k-point 21 :  -0.3000 0.2000-0.0000  plane waves:    1147
 k-point 22 :  -0.2000 0.2000 0.0000  plane waves:    1147
 k-point 23 :   0.3000 0.3000 0.0000  plane waves:    1155
 k-point 24 :   0.4000 0.3000-0.0000  plane waves:    1146
 k-point 25 :   0.5000 0.3000 0.0000  plane waves:    1149
 k-point 26 :  -0.4000 0.3000 0.0000  plane waves:    1147
 k-point 27 :  -0.3000 0.3000 0.0000  plane waves:    1152
 k-point 28 :   0.4000 0.4000 0.0000  plane waves:    1150
 k-point 29 :   0.5000 0.4000 0.0000  plane waves:    1146
 k-point 30 :  -0.4000 0.4000 0.0000  plane waves:    1154
 k-point 31 :   0.5000 0.5000 0.0000  plane waves:    1142
 k-point 32 :   0.1000 0.1000 0.1000  plane waves:    1185
 k-point 33 :   0.2000 0.1000 0.1000  plane waves:    1170
 k-point 34 :   0.3000 0.1000 0.1000  plane waves:    1167
 k-point 35 :   0.4000 0.1000 0.1000  plane waves:    1155
 k-point 36 :   0.5000 0.1000 0.1000  plane waves:    1140
 k-point 37 :  -0.4000 0.1000 0.1000  plane waves:    1138
 k-point 38 :  -0.3000 0.1000 0.1000  plane waves:    1139
 k-point 39 :  -0.2000 0.1000 0.1000  plane waves:    1141
 k-point 40 :  -0.1000 0.1000 0.1000  plane waves:    1154
 k-point 41 :   0.2000 0.2000 0.1000  plane waves:    1174
 k-point 42 :   0.3000 0.2000 0.1000  plane waves:    1161
 k-point 43 :   0.4000 0.2000 0.1000  plane waves:    1163
 k-point 44 :   0.5000 0.2000 0.1000  plane waves:    1147
 k-point 45 :  -0.4000 0.2000 0.1000  plane waves:    1144
 k-point 46 :  -0.3000 0.2000 0.1000  plane waves:    1146
 k-point 47 :  -0.2000 0.2000 0.1000  plane waves:    1144
 k-point 48 :  -0.1000 0.2000 0.1000  plane waves:    1149
 k-point 49 :   0.3000 0.3000 0.1000  plane waves:    1157
 k-point 50 :   0.4000 0.3000 0.1000  plane waves:    1154
 k-point 51 :   0.5000 0.3000 0.1000  plane waves:    1148
 k-point 52 :  -0.4000 0.3000 0.1000  plane waves:    1150
 k-point 53 :  -0.3000 0.3000 0.1000  plane waves:    1151
 k-point 54 :  -0.2000 0.3000 0.1000  plane waves:    1145
 k-point 55 :  -0.1000 0.3000 0.1000  plane waves:    1144
 k-point 56 :   0.4000 0.4000 0.1000  plane waves:    1158
 k-point 57 :   0.5000 0.4000 0.1000  plane waves:    1151
 k-point 58 :  -0.4000 0.4000 0.1000  plane waves:    1151
 k-point 59 :  -0.3000 0.4000 0.1000  plane waves:    1146
 k-point 60 :  -0.2000 0.4000 0.1000  plane waves:    1145
 k-point 61 :  -0.1000 0.4000 0.1000  plane waves:    1150
 k-point 62 :   0.5000 0.5000 0.1000  plane waves:    1146
 k-point 63 :  -0.4000 0.5000 0.1000  plane waves:    1147
 k-point 64 :  -0.3000 0.5000 0.1000  plane waves:    1151
 k-point 65 :  -0.2000 0.5000 0.1000  plane waves:    1150
 k-point 66 :  -0.1000 0.5000 0.1000  plane waves:    1144
 k-point 67 :  -0.4000-0.4000 0.1000  plane waves:    1139
 k-point 68 :  -0.3000-0.4000 0.1000  plane waves:    1142
 k-point 69 :  -0.2000-0.4000 0.1000  plane waves:    1145
 k-point 70 :  -0.3000-0.3000 0.1000  plane waves:    1155
 k-point 71 :  -0.2000-0.3000 0.1000  plane waves:    1144
 k-point 72 :  -0.2000-0.2000 0.1000  plane waves:    1144
 k-point 73 :   0.2000 0.2000 0.2000  plane waves:    1185
 k-point 74 :   0.3000 0.2000 0.2000  plane waves:    1167
 k-point 75 :   0.4000 0.2000 0.2000  plane waves:    1161
 k-point 76 :   0.5000 0.2000 0.2000  plane waves:    1153
 k-point 77 :  -0.4000 0.2000 0.2000  plane waves:    1130
 k-point 78 :  -0.3000 0.2000 0.2000  plane waves:    1141
 k-point 79 :  -0.2000 0.2000 0.2000  plane waves:    1147
 k-point 80 :   0.3000 0.3000 0.2000  plane waves:    1167
 k-point 81 :   0.4000 0.3000 0.2000  plane waves:    1157
 k-point 82 :   0.5000 0.3000 0.2000  plane waves:    1158
 k-point 83 :  -0.4000 0.3000 0.2000  plane waves:    1150
 k-point 84 :  -0.3000 0.3000 0.2000  plane waves:    1142
 k-point 85 :  -0.2000 0.3000 0.2000  plane waves:    1139
 k-point 86 :   0.4000 0.4000 0.2000  plane waves:    1157
 k-point 87 :   0.5000 0.4000 0.2000  plane waves:    1154
 k-point 88 :  -0.4000 0.4000 0.2000  plane waves:    1149
 k-point 89 :  -0.3000 0.4000 0.2000  plane waves:    1148
 k-point 90 :  -0.2000 0.4000 0.2000  plane waves:    1146
 k-point 91 :   0.5000 0.5000 0.2000  plane waves:    1162
 k-point 92 :  -0.4000 0.5000 0.2000  plane waves:    1155
 k-point 93 :  -0.3000 0.5000 0.2000  plane waves:    1152
 k-point 94 :  -0.2000 0.5000 0.2000  plane waves:    1144
 k-point 95 :  -0.4000-0.4000 0.2000  plane waves:    1141
 k-point 96 :  -0.3000-0.4000 0.2000  plane waves:    1147
 k-point 97 :  -0.3000-0.3000 0.2000  plane waves:    1142
 k-point 98 :   0.3000 0.3000 0.3000  plane waves:    1168
 k-point 99 :   0.4000 0.3000 0.3000  plane waves:    1167
 k-point ** :   0.5000 0.3000 0.3000  plane waves:    1160
 k-point ** :  -0.4000 0.3000 0.3000  plane waves:    1154
 k-point ** :  -0.3000 0.3000 0.3000  plane waves:    1145
 k-point ** :   0.4000 0.4000 0.3000  plane waves:    1164
 k-point ** :   0.5000 0.4000 0.3000  plane waves:    1158
 k-point ** :  -0.4000 0.4000 0.3000  plane waves:    1162
 k-point ** :  -0.3000 0.4000 0.3000  plane waves:    1155
 k-point ** :   0.5000 0.5000 0.3000  plane waves:    1165
 k-point ** :  -0.4000 0.5000 0.3000  plane waves:    1158
 k-point ** :  -0.3000 0.5000 0.3000  plane waves:    1148
 k-point ** :  -0.4000-0.4000 0.3000  plane waves:    1160
 k-point ** :   0.4000 0.4000 0.4000  plane waves:    1159
 k-point ** :   0.5000 0.4000 0.4000  plane waves:    1161
 k-point ** :  -0.4000 0.4000 0.4000  plane waves:    1158
 k-point ** :   0.5000 0.5000 0.4000  plane waves:    1160
 k-point ** :  -0.4000 0.5000 0.4000  plane waves:    1158
 k-point ** :   0.5000 0.5000 0.5000  plane waves:    1156

 maximum and minimum number of plane-waves per node :      1191     1130

 maximum number of plane-waves:      1191
 maximum index in each direction: 
   IXMAX=   11   IYMAX=   11   IZMAX=   11
   IXMIN=  -11   IYMIN=  -11   IZMIN=  -11


 serial   3D FFT for wavefunctions
 parallel 3D FFT for charge:
    minimum data exchange during FFTs selected (reduces bandwidth)


 total amount of memory used by VASP MPI-rank0   257630. kBytes
=======================================================================

   base      :      30000. kBytes
   nonl-proj :     136135. kBytes
   fftplans  :      15598. kBytes
   grid      :      33214. kBytes
   one-center:        322. kBytes
   wavefun   :      42361. kBytes
 
     INWAV:  cpu time    0.2606: real time    0.2613
 Broyden mixing: mesh for mixing (old mesh)
   NGX = 23   NGY = 23   NGZ = 23
  (NGX  = 96   NGY  = 96   NGZ  = 96)
  gives a total of  12167 points

 charge density for first step will be calculated from the start-wavefunctions


--------------------------------------------------------------------------------------------------------


 Maximum index for augmentation-charges        53145 (set IRDMAX)


--------------------------------------------------------------------------------------------------------


 initial charge from wavefunction
 First call to EWALD:  gamma=   0.521
 Maximum number of real-space cells 4x 4x 4
 Maximum number of reciprocal cells 4x 4x 4

    FEWALD:  cpu time    0.0067: real time    0.0068


--------------------------------------- Iteration      1(   1)  ---------------------------------------


    POTLOK:  cpu time    0.1953: real time    0.1960
    SETDIJ:  cpu time    0.0356: real time    0.0357
     EDDAV:  cpu time   10.1142: real time   10.1645
       DOS:  cpu time    0.0018: real time    0.0018
    CHARGE:  cpu time    0.6784: real time    0.6810
    MIXING:  cpu time    0.0065: real time    0.0065
    --------------------------------------------
      LOOP:  cpu time   11.0317: real time   11.0855

 eigenvalue-minimisations  :  9328
 total energy-change (2. order) :-0.2741805E+02  (-0.4833123E-02)
 number of electron      34.0000002 magnetization 
 augmentation part       11.5396039 magnetization 

 Broyden mixing:
  rms(total) = 0.63845E-01    rms(broyden)= 0.63840E-01
  rms(prec ) = 0.10282E+00
  weight for this iteration     100.00

 Free energy of the ion-electron system (eV)
  ---------------------------------------------------
  alpha Z        PSCENC =       167.30580229
  Ewald energy   TEWEN  =     -3351.26154090
  -Hartree energ DENC   =     -2402.76994556
  -exchange      EXHF   =         0.00000000
  -V(xc)+E(xc)   XCENC  =       180.99994438
  PAW double counting   =      5404.74766901    -5729.75740160
  entropy T*S    EENTRO =        -0.00000000
  eigenvalues    EBANDS =      -590.18363415
  atomic energy  EATOM  =      6293.50105541
  Solvation  Ediel_sol  =         0.00000000
  ---------------------------------------------------
  free energy    TOTEN  =       -27.41805112 eV

  energy without entropy =      -27.41805112  energy(sigma->0) =      -27.41805112


--------------------------------------------------------------------------------------------------------




--------------------------------------- Iteration      1(   2)  ---------------------------------------


    POTLOK:  cpu time    0.1944: real time    0.1950
    SETDIJ:  cpu time    0.0338: real time    0.0341
    EDDIAG:  cpu time    2.0962: real time    2.1056
  RMM-DIIS:  cpu time   12.6709: real time   12.7303
    ORTHCH:  cpu time    0.0551: real time    0.0553
       DOS:  cpu time    0.0010: real time    0.0010
    CHARGE:  cpu time    0.6634: real time    0.6662
    MIXING:  cpu time    0.0088: real time    0.0089
    --------------------------------------------
      LOOP:  cpu time   15.7237: real time   15.7965

 eigenvalue-minimisations  : 11310
 total energy-change (2. order) : 0.9034072E-03  (-0.4951315E-02)
 number of electron      34.0000002 magnetization 
 augmentation part       11.6297443 magnetization 

 Broyden mixing:
  rms(total) = 0.66632E-01    rms(broyden)= 0.66614E-01
  rms(prec ) = 0.11175E+00
  weight for this iteration     100.00

 eigenvalues of (default mixing * dielectric matrix)
  average eigenvalue GAMMA=   0.4903
  0.4903

 Free energy of the ion-electron system (eV)
  ---------------------------------------------------
  alpha Z        PSCENC =       167.30580229
  Ewald energy   TEWEN  =     -3351.26154090
  -Hartree energ DENC   =     -2397.95348040
  -exchange      EXHF   =         0.00000000
  -V(xc)+E(xc)   XCENC  =       180.84518332
  PAW double counting   =      5397.25105069    -5720.45738147
  entropy T*S    EENTRO =        -0.00000000
  eigenvalues    EBANDS =      -596.64783664
  atomic energy  EATOM  =      6293.50105541
  Solvation  Ediel_sol  =         0.00000000
  ---------------------------------------------------
  free energy    TOTEN  =       -27.41714771 eV

  energy without entropy =      -27.41714771  energy(sigma->0) =      -27.41714771


--------------------------------------------------------------------------------------------------------




--------------------------------------- Iteration      1(   3)  ---------------------------------------


    POTLOK:  cpu time    0.1929: real time    0.1936
    SETDIJ:  cpu time    0.0340: real time    0.0341
    EDDIAG:  cpu time    2.0953: real time    2.1047
  RMM-DIIS:  cpu time   11.7255: real time   11.7797
    ORTHCH:  cpu time    0.0504: real time    0.0505
       DOS:  cpu time    0.0012: real time    0.0012
    CHARGE:  cpu time    0.6649: real time    0.6675
    MIXING:  cpu time    0.0069: real time    0.0069
    --------------------------------------------
      LOOP:  cpu time   14.7711: real time   14.8383

 eigenvalue-minimisations  : 10422
 total energy-change (2. order) : 0.5954163E-02  (-0.8562804E-03)
 number of electron      34.0000002 magnetization 
 augmentation part       11.5819803 magnetization 

 Broyden mixing:
  rms(total) = 0.30342E-02    rms(broyden)= 0.29719E-02
  rms(prec ) = 0.45416E-02
  weight for this iteration     100.00

 eigenvalues of (default mixing * dielectric matrix)
  average eigenvalue GAMMA=   0.8485
  1.2330  0.4640

 Free energy of the ion-electron system (eV)
  ---------------------------------------------------
  alpha Z        PSCENC =       167.30580229
  Ewald energy   TEWEN  =     -3351.26154090
  -Hartree energ DENC   =     -2400.49005882
  -exchange      EXHF   =         0.00000000
  -V(xc)+E(xc)   XCENC  =       180.92351900
  PAW double counting   =      5401.51026319    -5725.46703848
  entropy T*S    EENTRO =        -0.00000000
  eigenvalues    EBANDS =      -593.43319523
  atomic energy  EATOM  =      6293.50105541
  Solvation  Ediel_sol  =         0.00000000
  ---------------------------------------------------
  free energy    TOTEN  =       -27.41119355 eV

  energy without entropy =      -27.41119355  energy(sigma->0) =      -27.41119355


--------------------------------------------------------------------------------------------------------




--------------------------------------- Iteration      1(   4)  ---------------------------------------


    POTLOK:  cpu time    0.1940: real time    0.1947
    SETDIJ:  cpu time    0.0338: real time    0.0339
    EDDIAG:  cpu time    2.0964: real time    2.1059
  RMM-DIIS:  cpu time   13.3464: real time   13.4104
    ORTHCH:  cpu time    0.0596: real time    0.0599
       DOS:  cpu time    0.0012: real time    0.0012
    CHARGE:  cpu time    0.6788: real time    0.6815
    MIXING:  cpu time    0.0072: real time    0.0072
    --------------------------------------------
      LOOP:  cpu time   16.4174: real time   16.4948

 eigenvalue-minimisations  : 11906
 total energy-change (2. order) :-0.6756535E-04  (-0.4518760E-04)
 number of electron      34.0000002 magnetization 
 augmentation part       11.5869952 magnetization 

 Broyden mixing:
  rms(total) = 0.40943E-02    rms(broyden)= 0.40941E-02
  rms(prec ) = 0.72332E-02
  weight for this iteration     100.00

 eigenvalues of (default mixing * dielectric matrix)
  average eigenvalue GAMMA=   0.7797
  1.4187  0.5261  0.3942

 Free energy of the ion-electron system (eV)
  ---------------------------------------------------
  alpha Z        PSCENC =       167.30580229
  Ewald energy   TEWEN  =     -3351.26154090
  -Hartree energ DENC   =     -2400.37731596
  -exchange      EXHF   =         0.00000000
  -V(xc)+E(xc)   XCENC  =       180.91919215
  PAW double counting   =      5401.44750466    -5725.32790288
  entropy T*S    EENTRO =        -0.00000000
  eigenvalues    EBANDS =      -593.61805589
  atomic energy  EATOM  =      6293.50105541
  Solvation  Ediel_sol  =         0.00000000
  ---------------------------------------------------
  free energy    TOTEN  =       -27.41126111 eV

  energy without entropy =      -27.41126111  energy(sigma->0) =      -27.41126111


--------------------------------------------------------------------------------------------------------




--------------------------------------- Iteration      1(   5)  ---------------------------------------


    POTLOK:  cpu time    0.1959: real time    0.1968
    SETDIJ:  cpu time    0.0345: real time    0.0346
    EDDIAG:  cpu time    2.1483: real time    2.1582
  RMM-DIIS:  cpu time   13.7261: real time   13.7921
    ORTHCH:  cpu time    0.0508: real time    0.0510
       DOS:  cpu time    0.0011: real time    0.0011
    CHARGE:  cpu time    0.6727: real time    0.6753
    MIXING:  cpu time    0.0072: real time    0.0073
    --------------------------------------------
      LOOP:  cpu time   16.8366: real time   16.9164

 eigenvalue-minimisations  : 12211
 total energy-change (2. order) : 0.6683586E-06  (-0.1022893E-04)
 number of electron      34.0000002 magnetization 
 augmentation part       11.5866095 magnetization 

 Broyden mixing:
  rms(total) = 0.34943E-02    rms(broyden)= 0.34942E-02
  rms(prec ) = 0.61881E-02
  weight for this iteration     100.00

 eigenvalues of (default mixing * dielectric matrix)
  average eigenvalue GAMMA=   0.9404
  1.3611  0.4523  0.9741  0.9741

 Free energy of the ion-electron system (eV)
  ---------------------------------------------------
  alpha Z        PSCENC =       167.30580229
  Ewald energy   TEWEN  =     -3351.26154090
  -Hartree energ DENC   =     -2400.42546699
  -exchange      EXHF   =         0.00000000
  -V(xc)+E(xc)   XCENC  =       180.92076672
  PAW double counting   =      5401.55235150    -5725.42857142
  entropy T*S    EENTRO =        -0.00000000
  eigenvalues    EBANDS =      -593.57565707
  atomic energy  EATOM  =      6293.50105541
  Solvation  Ediel_sol  =         0.00000000
  ---------------------------------------------------
  free energy    TOTEN  =       -27.41126044 eV

  energy without entropy =      -27.41126044  energy(sigma->0) =      -27.41126044


--------------------------------------------------------------------------------------------------------




--------------------------------------- Iteration      1(   6)  ---------------------------------------


    POTLOK:  cpu time    0.1957: real time    0.1965
    SETDIJ:  cpu time    0.0334: real time    0.0336
    EDDIAG:  cpu time    2.1249: real time    2.1346
  RMM-DIIS:  cpu time   12.7799: real time   12.8397
    ORTHCH:  cpu time    0.0520: real time    0.0522
       DOS:  cpu time    0.0012: real time    0.0012
    CHARGE:  cpu time    0.6739: real time    0.6765
    MIXING:  cpu time    0.0072: real time    0.0072
    --------------------------------------------
      LOOP:  cpu time   15.8683: real time   15.9416

 eigenvalue-minimisations  : 11153
 total energy-change (2. order) : 0.1263254E-04  (-0.1342481E-05)
 number of electron      34.0000002 magnetization 
 augmentation part       11.5856653 magnetization 

 Broyden mixing:
  rms(total) = 0.20107E-02    rms(broyden)= 0.20105E-02
  rms(prec ) = 0.35599E-02
  weight for this iteration     100.00

 eigenvalues of (default mixing * dielectric matrix)
  average eigenvalue GAMMA=   1.1412
  2.1279  0.4490  0.7819  1.1735  1.1735

 Free energy of the ion-electron system (eV)
  ---------------------------------------------------
  alpha Z        PSCENC =       167.30580229
  Ewald energy   TEWEN  =     -3351.26154090
  -Hartree energ DENC   =     -2400.54052236
  -exchange      EXHF   =         0.00000000
  -V(xc)+E(xc)   XCENC  =       180.92473521
  PAW double counting   =      5401.86102097    -5725.71719500
  entropy T*S    EENTRO =        -0.00000000
  eigenvalues    EBANDS =      -593.48460344
  atomic energy  EATOM  =      6293.50105541
  Solvation  Ediel_sol  =         0.00000000
  ---------------------------------------------------
  free energy    TOTEN  =       -27.41124781 eV

  energy without entropy =      -27.41124781  energy(sigma->0) =      -27.41124781


--------------------------------------------------------------------------------------------------------




--------------------------------------- Iteration      1(   7)  ---------------------------------------


    POTLOK:  cpu time    0.1982: real time    0.1988
    SETDIJ:  cpu time    0.0339: real time    0.0342
    EDDIAG:  cpu time    2.1384: real time    2.1480
  RMM-DIIS:  cpu time   12.4169: real time   12.4753
    ORTHCH:  cpu time    0.0549: real time    0.0551
       DOS:  cpu time    0.0012: real time    0.0012
    CHARGE:  cpu time    0.6074: real time    0.6099
    MIXING:  cpu time    0.0084: real time    0.0084
    --------------------------------------------
      LOOP:  cpu time   15.4592: real time   15.5309

 eigenvalue-minimisations  : 10918
 total energy-change (2. order) : 0.6062572E-05  (-0.1007804E-05)
 number of electron      34.0000002 magnetization 
 augmentation part       11.5845318 magnetization 

 Broyden mixing:
  rms(total) = 0.23136E-03    rms(broyden)= 0.22940E-03
  rms(prec ) = 0.39396E-03
  weight for this iteration     100.00

 eigenvalues of (default mixing * dielectric matrix)
  average eigenvalue GAMMA=   1.2839
  2.2941  0.4493  1.6313  0.9363  1.1962  1.1962

 Free energy of the ion-electron system (eV)
  ---------------------------------------------------
  alpha Z        PSCENC =       167.30580229
  Ewald energy   TEWEN  =     -3351.26154090
  -Hartree energ DENC   =     -2400.67195778
  -exchange      EXHF   =         0.00000000
  -V(xc)+E(xc)   XCENC  =       180.92909635
  PAW double counting   =      5402.17800238    -5726.01343954
  entropy T*S    EENTRO =        -0.00000000
  eigenvalues    EBANDS =      -593.37825996
  atomic energy  EATOM  =      6293.50105541
  Solvation  Ediel_sol  =         0.00000000
  ---------------------------------------------------
  free energy    TOTEN  =       -27.41124175 eV

  energy without entropy =      -27.41124175  energy(sigma->0) =      -27.41124175


--------------------------------------------------------------------------------------------------------




--------------------------------------- Iteration      1(   8)  ---------------------------------------


    POTLOK:  cpu time    0.1914: real time    0.1921
    SETDIJ:  cpu time    0.0340: real time    0.0341
    EDDIAG:  cpu time    2.1042: real time    2.1135
  RMM-DIIS:  cpu time   13.4996: real time   13.5637
    ORTHCH:  cpu time    0.0520: real time    0.0522
       DOS:  cpu time    0.0011: real time    0.0011
    CHARGE:  cpu time    0.6077: real time    0.6101
    MIXING:  cpu time    0.0073: real time    0.0074
    --------------------------------------------
      LOOP:  cpu time   16.4973: real time   16.5741

 eigenvalue-minimisations  : 11849
 total energy-change (2. order) :-0.8570114E-06  (-0.7924960E-06)
 number of electron      34.0000002 magnetization 
 augmentation part       11.5844680 magnetization 

 Broyden mixing:
  rms(total) = 0.11347E-03    rms(broyden)= 0.11330E-03
  rms(prec ) = 0.18512E-03
  weight for this iteration     100.00

 eigenvalues of (default mixing * dielectric matrix)
  average eigenvalue GAMMA=   1.1019
  2.2905  0.4493  1.6337  0.9363  1.1958  1.1958  0.0121

 Free energy of the ion-electron system (eV)
  ---------------------------------------------------
  alpha Z        PSCENC =       167.30580229
  Ewald energy   TEWEN  =     -3351.26154090
  -Hartree energ DENC   =     -2400.67948470
  -exchange      EXHF   =         0.00000000
  -V(xc)+E(xc)   XCENC  =       180.92932655
  PAW double counting   =      5402.15430196    -5725.98791405
  entropy T*S    EENTRO =        -0.00000000
  eigenvalues    EBANDS =      -593.37278916
  atomic energy  EATOM  =      6293.50105541
  Solvation  Ediel_sol  =         0.00000000
  ---------------------------------------------------
  free energy    TOTEN  =       -27.41124261 eV

  energy without entropy =      -27.41124261  energy(sigma->0) =      -27.41124261


--------------------------------------------------------------------------------------------------------




--------------------------------------- Iteration      1(   9)  ---------------------------------------


    POTLOK:  cpu time    0.1939: real time    0.1946
    SETDIJ:  cpu time    0.0342: real time    0.0344
    EDDIAG:  cpu time    2.1519: real time    2.1617
  RMM-DIIS:  cpu time   11.8348: real time   11.8906
    ORTHCH:  cpu time    0.0558: real time    0.0561
       DOS:  cpu time    0.0010: real time    0.0010
    CHARGE:  cpu time    0.6117: real time    0.6141
    MIXING:  cpu time    0.0086: real time    0.0086
    --------------------------------------------
      LOOP:  cpu time   14.8920: real time   14.9611

 eigenvalue-minimisations  : 10277
 total energy-change (2. order) :-0.8807092E-07  (-0.1070052E-06)
 number of electron      34.0000002 magnetization 
 augmentation part       11.5843725 magnetization 

 Broyden mixing:
  rms(total) = 0.62763E-04    rms(broyden)= 0.62673E-04
  rms(prec ) = 0.89786E-04
  weight for this iteration     100.00

 eigenvalues of (default mixing * dielectric matrix)
  average eigenvalue GAMMA=   1.3306
  2.6994  1.7478  0.4493  0.9118  1.1392  1.1392  1.2789  1.2789

 Free energy of the ion-electron system (eV)
  ---------------------------------------------------
  alpha Z        PSCENC =       167.30580229
  Ewald energy   TEWEN  =     -3351.26154090
  -Hartree energ DENC   =     -2400.68621947
  -exchange      EXHF   =         0.00000000
  -V(xc)+E(xc)   XCENC  =       180.92953473
  PAW double counting   =      5402.15367775    -5725.98710445
  entropy T*S    EENTRO =        -0.00000000
  eigenvalues    EBANDS =      -593.36644805
  atomic energy  EATOM  =      6293.50105541
  Solvation  Ediel_sol  =         0.00000000
  ---------------------------------------------------
  free energy    TOTEN  =       -27.41124269 eV

  energy without entropy =      -27.41124269  energy(sigma->0) =      -27.41124269


--------------------------------------------------------------------------------------------------------




--------------------------------------- Iteration      1(  10)  ---------------------------------------


    POTLOK:  cpu time    0.1922: real time    0.1931
    SETDIJ:  cpu time    0.0347: real time    0.0348
    EDDIAG:  cpu time    2.1384: real time    2.1479
  RMM-DIIS:  cpu time   10.7738: real time   10.8256
    ORTHCH:  cpu time    0.0533: real time    0.0536
       DOS:  cpu time    0.0011: real time    0.0011
    --------------------------------------------
      LOOP:  cpu time   13.1935: real time   13.2560

 eigenvalue-minimisations  :  9389
 total energy-change (2. order) :-0.7468407E-07  (-0.3709765E-07)
 number of electron      34.0000002 magnetization 
 augmentation part       11.5843725 magnetization 

 Free energy of the ion-electron system (eV)
  ---------------------------------------------------
  alpha Z        PSCENC =       167.30580229
  Ewald energy   TEWEN  =     -3351.26154090
  -Hartree energ DENC   =     -2400.68243951
  -exchange      EXHF   =         0.00000000
  -V(xc)+E(xc)   XCENC  =       180.92938992
  PAW double counting   =      5402.12841103    -5725.96144878
  entropy T*S    EENTRO =        -0.00000000
  eigenvalues    EBANDS =      -593.37047223
  atomic energy  EATOM  =      6293.50105541
  Solvation  Ediel_sol  =         0.00000000
  ---------------------------------------------------
  free energy    TOTEN  =       -27.41124277 eV

  energy without entropy =      -27.41124277  energy(sigma->0) =      -27.41124277


--------------------------------------------------------------------------------------------------------




 average (electrostatic) potential at core
  the test charge radii are     0.8846  1.0406  0.7215
  (the norm of the test charge is              1.0000)
       1 -76.0590       2 -50.7213       3 -69.6791       4 -69.6791
 
 
 
 E-fermi :   6.7334     XC(G=0): -11.9997     alpha+bet :-13.2705


 k-point     1 :       0.0000    0.0000    0.0000
  band No.  band energies     occupation 
      1    -105.4658      2.00000
      2     -63.1609      2.00000
      3     -62.9498      2.00000
      4     -62.9498      2.00000
      5     -15.2680      2.00000
      6     -13.0906      2.00000
      7      -2.5931      2.00000
      8       1.8899      2.00000
      9       1.9938      2.00000
     10       1.9938      2.00000
     11       2.0499      2.00000
[...]
     19      11.0564      0.00000
     20      13.5293      0.00000
     21      17.9064      0.00000
     22      18.8601      0.00000
     23      19.2957      0.00000
     24      15.9481      0.00000
     25      22.1555      0.00000
     26      23.1258      0.00000
     27      24.5822      0.00000
     28      25.1282      0.00000
     29      27.5205      0.00000
     30      28.4296      0.00000
     31      28.5358      0.00000
     32      29.8634      0.00000
     33      30.3879      0.00000
     34      30.9596      0.00000
     35      32.4754      0.00000
     36      45.6484      0.00000

 k-point   113 :      -0.4000    0.4000    0.4000
  band No.  band energies     occupation 
      1    -105.4650      2.00000
      2     -63.1593      2.00000
      3     -62.9569      2.00000
      4     -62.9513      2.00000
      5     -14.6940      2.00000
      6     -13.0933      2.00000
      7      -1.0567      2.00000
      8      -0.4486      2.00000
      9       1.2128      2.00000
     10       1.5776      2.00000
     11       1.8173      2.00000
     12       2.6226      2.00000
     13       2.8366      2.00000
     14       3.9541      2.00000
     15       4.2943      2.00000
     16       4.7484      2.00000
     17       4.9613      2.00000
     18       9.0807      0.00000
     19      12.2265      0.00000
     20      14.6003      0.00000
     21      17.0150      0.00000
     22      18.1364      0.00000
     23      18.5625      0.00000
     24      21.3217      0.00000
     25      15.9007      0.00000
     26      23.3426      0.00000
     27      23.7446      0.00000
     28      25.6831      0.00000
     29      26.4671      0.00000
     30      28.7759      0.00000
     31      30.5521      0.00000
     32      30.7295      0.00000
     33      32.1244      0.00000
     34      32.7035      0.00000
     35      33.2760      0.00000
     36      33.2120      0.00000

 k-point   114 :       0.5000    0.5000    0.4000
  band No.  band energies     occupation 
      1    -105.4655      2.00000
      2     -63.1596      2.00000
      3     -62.9515      2.00000
      4     -62.9500      2.00000
      5     -15.0408      2.00000
      6     -13.2308      2.00000
      7      -1.2460      2.00000
      8       0.0046      2.00000
      9       1.8574      2.00000
     10       2.1557      2.00000
     11       2.1804      2.00000
     12       2.5330      2.00000
     13       2.6373      2.00000
     14       3.9902      2.00000
     15       4.1030      2.00000
     16       4.9289      2.00000
     17       5.0355      2.00000
     18       9.3399      0.00000
     19      10.9730      0.00000
     20      13.5291      0.00000
     21      17.9064      0.00000
     22      18.8624      0.00000
     23      19.8473      0.00000
     24      18.2979      0.00000
     25      22.3663      0.00000
     26      23.2284      0.00000
     27      24.1506      0.00000
     28      24.3919      0.00000
     29      27.4462      0.00000
     30      28.2735      0.00000
     31      28.9294      0.00000
     32      30.0699      0.00000
     33      30.2369      0.00000
     34      31.2944      0.00000
     35      32.2340      0.00000
     36      29.1569      0.00000

 k-point   115 :      -0.4000    0.5000    0.4000
  band No.  band energies     occupation 
      1    -105.4652      2.00000
      2     -63.1594      2.00000
      3     -62.9550      2.00000
      4     -62.9510      2.00000
      5     -14.8045      2.00000
      6     -13.1367      2.00000
      7      -1.0757      2.00000
      8      -0.2761      2.00000
      9       1.3657      2.00000
     10       1.6041      2.00000
     11       2.1931      2.00000
     12       2.4058      2.00000
     13       2.7850      2.00000
     14       3.9152      2.00000
     15       4.2583      2.00000
     16       4.8010      2.00000
     17       4.9835      2.00000
     18       9.1965      0.00000
     19      11.8574      0.00000
     20      14.3461      0.00000
     21      17.2624      0.00000
     22      18.3301      0.00000
     23      18.9133      0.00000
     24      21.6825      0.00000
     25      22.6585      0.00000
     26      23.3103      0.00000
     27      26.5445      0.00000
     28      26.8010      0.00000
     29      28.7224      0.00000
     30      29.9582      0.00000
     31      30.7155      0.00000
     32      31.7537      0.00000
     33      32.3345      0.00000
     34      32.7494      0.00000
     35      30.7040      0.00000
     36      33.8322      0.00000

 k-point   116 :       0.5000    0.5000    0.5000
  band No.  band energies     occupation 
      1    -105.4657      2.00000
      2     -63.1599      2.00000
      3     -62.9493      2.00000
      4     -62.9493      2.00000
      5     -15.1621      2.00000
      6     -13.2877      2.00000
      7      -1.3028      2.00000
      8       0.0623      2.00000
      9       2.0820      2.00000
     10       2.3127      2.00000
     11       2.3127      2.00000
     12       2.6706      2.00000
     13       2.6706      2.00000
     14       4.0311      2.00000
     15       4.0311      2.00000
     16       5.0462      2.00000
     17       5.0462      2.00000
     18       9.4447      0.00000
     19      10.3913      0.00000
     20      13.0566      0.00000
     21      18.1128      0.00000
     22      19.4704      0.00000
     23      18.2336      0.00000
     24      20.6508      0.00000
     25      21.5902      0.00000
     26      13.6523      0.00000
     27      25.2684      0.00000
     28      25.0610      0.00000
     29      25.7878      0.00000
     30      26.2804      0.00000
     31      28.2772      0.00000
     32      28.2772      0.00000
     33      29.0501      0.00000
     34      29.0501      0.00000
     35      30.2145      0.00000
     36      31.5921      0.00000


--------------------------------------------------------------------------------------------------------


 soft charge-density along one line, spin component           1
         0         1         2         3         4         5         6         7         8         9
 total charge-density along one line
 
 pseudopotential strength for first ion, spin component:           1
-79.472  14.513 -15.550  -0.000  -0.000  -0.000  -0.000  -0.000
 14.513   3.471  -6.472   0.000   0.000   0.000   0.000   0.000
-15.550  -6.472  13.141  -0.000  -0.000  -0.000  -0.000  -0.000
 -0.000   0.000  -0.000 -68.502   0.000   0.000 -59.777   0.000
 -0.000   0.000  -0.000   0.000 -68.556   0.000   0.000 -59.823
 -0.000   0.000  -0.000   0.000   0.000 -68.502   0.000   0.000
 -0.000   0.000  -0.000 -59.777   0.000   0.000 -52.229   0.000
 -0.000   0.000  -0.000   0.000 -59.823   0.000   0.000 -52.268
 -0.000   0.000  -0.000   0.000   0.000 -59.777   0.000   0.000
 -0.000  -0.000   0.000  10.799   0.000   0.000   7.082   0.000
 -0.000  -0.000   0.000   0.000  10.705   0.000   0.000   6.998
 -0.000  -0.000   0.000   0.000   0.000  10.799   0.000   0.000
  0.000  -0.000  -0.000  -0.000   0.000  -0.000  -0.000   0.000
  0.000  -0.000   0.000  -0.000  -0.000   0.000  -0.000  -0.000
 -0.029   0.015   0.006   0.000  -0.000   0.000   0.000  -0.000
  0.000  -0.000  -0.000   0.000   0.000  -0.000   0.000   0.000
  0.000  -0.000   0.000   0.000   0.000  -0.000   0.000   0.000
 -0.000  -0.000   0.000   0.000  -0.000   0.000   0.000  -0.000
 -0.000   0.000  -0.000   0.000   0.000  -0.000   0.000   0.000
  0.063   0.006  -0.035  -0.000   0.000  -0.000  -0.000   0.000
 -0.000  -0.000   0.000  -0.000  -0.000   0.000  -0.000  -0.000
 -0.000   0.000  -0.000  -0.000  -0.000   0.000  -0.000  -0.000
  0.000   0.000  -0.000  -0.000   0.000  -0.000  -0.000   0.000
  0.000  -0.000   0.000  -0.000  -0.000   0.000  -0.000  -0.000
 -0.114  -0.031   0.078   0.000  -0.000   0.000   0.000  -0.000
  0.000   0.000  -0.000   0.000  -0.000  -0.000   0.000   0.000
  0.000  -0.000   0.000   0.000   0.000  -0.000   0.000   0.000
 -0.000   0.000   0.000   0.000   0.000   0.000   0.000   0.000
  0.000  -0.000  -0.000   0.000   0.000   0.000   0.000   0.000
 -0.000   0.000   0.000   0.008   0.000  -0.000   0.008   0.000
 -0.000   0.000   0.000  -0.000  -0.006  -0.000  -0.000  -0.004
  0.000  -0.000  -0.000  -0.000   0.000   0.008  -0.000   0.000
  0.000  -0.000  -0.000   0.000   0.000   0.000   0.000   0.000
  0.000  -0.000  -0.000  -0.000   0.000   0.000  -0.000   0.000
  0.000  -0.000   0.000  -0.000  -0.000  -0.000  -0.000  -0.000
 -0.000   0.000  -0.000  -0.000  -0.000  -0.000  -0.000  -0.000
  0.000  -0.000   0.000  -0.030  -0.000   0.000  -0.028  -0.000
  0.000  -0.000   0.000   0.000   0.041   0.000   0.000   0.034
 -0.000   0.000  -0.000   0.000  -0.000  -0.030   0.000  -0.000
 -0.000   0.000  -0.000  -0.000  -0.000  -0.000  -0.000  -0.000
 -0.000   0.000  -0.000   0.000  -0.000  -0.000   0.000  -0.000
 total augmentation occupancy for first ion, spin component:           1
  2.002   0.011   0.007   0.000   0.000   0.000   0.000   0.000   0.000   0.000   0.000   0.000   0.000  -0.000  -0.001   0.000
  0.011   1.161   0.005   0.000   0.000   0.000   0.000   0.000   0.000   0.000   0.000   0.000   0.000  -0.000  -0.412   0.000
  0.007   0.005   0.000   0.000   0.000   0.000   0.000   0.000   0.000   0.000   0.000   0.000   0.000   0.000   0.001  -0.000
  0.000   0.000   0.000   2.561   0.000  -0.000  -0.659  -0.000   0.000   0.029   0.000  -0.000   0.000   0.000   0.000   0.000
  0.000   0.000   0.000   0.000   4.438   0.000  -0.000  -2.692   0.000   0.000   0.081  -0.000   0.000   0.000   0.000   0.000
  0.000   0.000   0.000  -0.000   0.000   2.561   0.000   0.000  -0.659  -0.000  -0.000   0.029   0.000   0.000   0.000   0.000
  0.000   0.000   0.000  -0.659  -0.000   0.000   0.778   0.000  -0.000  -0.022  -0.000   0.000   0.000   0.000   0.000   0.000
  0.000   0.000   0.000  -0.000  -2.692   0.000   0.000   2.980  -0.000  -0.000  -0.078   0.000   0.000   0.000   0.000   0.000
  0.000   0.000   0.000   0.000   0.000  -0.659  -0.000  -0.000   0.778   0.000   0.000  -0.022   0.000   0.000   0.000   0.000
  0.000   0.000   0.000   0.029   0.000   0.000  -0.022  -0.000   0.000   0.001   0.000  -0.000   0.000   0.000   0.000   0.000
  0.000   0.000   0.000   0.000   0.081  -0.000  -0.000  -0.078   0.000   0.000   0.002  -0.000   0.000   0.000   0.000   0.000
  0.000   0.000   0.000  -0.000  -0.000   0.029   0.000   0.000  -0.022  -0.000  -0.000   0.001   0.000   0.000   0.000   0.000
  0.000  -0.000   0.000   0.000   0.000   0.000   0.000   0.000   0.000   0.000   0.000   0.000   1.980   0.000   0.000   0.001
 -0.000  -0.000   0.000   0.000   0.000   0.000   0.000   0.000   0.000   0.000   0.000   0.000   0.000   2.025   0.000  -0.000
 -0.001  -0.412   0.001   0.000   0.000   0.000   0.000   0.000   0.000   0.000   0.000   0.000   0.000   0.000   1.720   0.000
  0.000   0.000  -0.000   0.000   0.000   0.000   0.000   0.000   0.000   0.000   0.000   0.000   0.001  -0.000   0.000   2.025
  0.000   0.000  -0.000   0.000   0.000   0.000   0.000   0.000   0.000   0.000   0.000   0.000   0.000   0.001  -0.000   0.000
  0.000   0.000   0.000   0.000   0.000   0.000   0.000   0.000   0.000   0.000   0.000   0.000  -0.008   0.000   0.000  -0.000
 -0.000   0.000   0.000   0.000   0.000   0.000   0.000   0.000   0.000   0.000   0.000   0.000   0.000  -0.021   0.000  -0.000
 -0.000   0.121   0.001   0.000   0.000   0.000   0.000   0.000   0.000   0.000   0.000   0.000   0.000   0.000   0.043  -0.000
  0.000  -0.000  -0.000   0.000   0.000   0.000   0.000   0.000   0.000   0.000   0.000   0.000  -0.000  -0.000  -0.000  -0.021
  0.000  -0.000  -0.000   0.000   0.000   0.000   0.000   0.000   0.000   0.000   0.000   0.000   0.000  -0.000  -0.000   0.000
 -0.000   0.000   0.000   0.000   0.000   0.000   0.000   0.000   0.000   0.000   0.000   0.000   0.009   0.000   0.000  -0.000
 -0.000   0.000   0.000   0.000   0.000   0.000   0.000   0.000   0.000   0.000   0.000   0.000   0.000   0.007   0.000  -0.000
 -0.000   0.014   0.000   0.000   0.000   0.000   0.000   0.000   0.000   0.000   0.000   0.000   0.000   0.000   0.015  -0.000
  0.000  -0.000  -0.000   0.000   0.000   0.000   0.000   0.000   0.000   0.000   0.000   0.000  -0.000  -0.000  -0.000   0.007
  0.000  -0.000  -0.000   0.000   0.000   0.000   0.000   0.000   0.000   0.000   0.000   0.000   0.000  -0.000  -0.000   0.000
  0.000   0.000   0.000   0.000   0.000  -0.000  -0.000  -0.000   0.000   0.000   0.000   0.000   0.000   0.000   0.000   0.000
  0.000   0.000   0.000   0.000  -0.000   0.001  -0.000   0.000  -0.001   0.000  -0.000   0.000   0.000   0.000   0.000   0.000
  0.000   0.000   0.000  -0.015  -0.000  -0.000   0.015   0.000   0.000  -0.000  -0.000   0.000   0.000   0.000   0.000   0.000
  0.000   0.000   0.000  -0.000  -0.159   0.000   0.000   0.169  -0.000  -0.000  -0.004   0.000   0.000   0.000   0.000   0.000
  0.000   0.000   0.000   0.000   0.000  -0.015  -0.000  -0.000   0.015   0.000   0.000  -0.000   0.000   0.000   0.000   0.000
  0.000   0.000   0.000   0.001   0.000   0.000  -0.001  -0.000  -0.000   0.000   0.000   0.000   0.000   0.000   0.000   0.000
  0.000   0.000   0.000   0.000   0.000   0.000  -0.000  -0.000  -0.000  -0.000   0.000   0.000   0.000   0.000   0.000   0.000
  0.000   0.000   0.000   0.000   0.000  -0.000  -0.000  -0.000   0.000   0.000   0.000   0.000   0.000   0.000   0.000   0.000
  0.000   0.000   0.000   0.000  -0.000   0.000  -0.000   0.000  -0.000   0.000  -0.000   0.000   0.000   0.000   0.000   0.000
  0.000   0.000   0.000  -0.002  -0.000   0.000   0.001   0.000   0.000  -0.000  -0.000   0.000   0.000   0.000   0.000   0.000
  0.000   0.000   0.000  -0.000  -0.011   0.000   0.000   0.008  -0.000  -0.000  -0.000   0.000   0.000   0.000   0.000   0.000
  0.000   0.000   0.000   0.000   0.000  -0.002  -0.000  -0.000   0.001   0.000   0.000  -0.000   0.000   0.000   0.000   0.000
  0.000   0.000   0.000   0.000   0.000   0.000  -0.000  -0.000  -0.000   0.000   0.000   0.000   0.000   0.000   0.000   0.000
  0.000   0.000   0.000   0.000   0.000   0.000  -0.000   0.000  -0.000   0.000   0.000   0.000   0.000   0.000   0.000   0.000


------------------------ aborting loop because EDIFF is reached ----------------------------------------


    CHARGE:  cpu time    0.6090: real time    0.6113
    FORLOC:  cpu time    0.0163: real time    0.0163
    FORNL :  cpu time    0.5474: real time    0.5492
    STRESS:  cpu time    1.9957: real time    2.0034
    FORCOR:  cpu time    0.1942: real time    0.1948
    FORHAR:  cpu time    0.0500: real time    0.0501
    MIXING:  cpu time    0.0082: real time    0.0082
    OFIELD:  cpu time    0.0001: real time    0.0001

  FORCE on cell =-STRESS in cart. coord.  units (eV):
  Direction    XX          YY          ZZ          XY          YZ          ZX
  --------------------------------------------------------------------------------------
  Alpha Z   167.30580   167.30580   167.30580
  Ewald   -1091.26741 -1091.26741 -1168.72954    -0.00000     0.00000     0.00000
  Hartree   902.04274   902.04274   596.61171    -0.00000     0.00000     0.00000
  E(xc)    -218.97930  -218.97930  -218.43877     0.00000     0.00000    -0.00000
  Local    -384.58502  -384.58502    18.53011     0.00000    -0.00000    -0.00000
  n-local  -197.92325  -197.50827  -200.31364     0.30338     0.62622    -0.66447
  augment   206.91746   206.91746   200.76402     0.00000     0.00000     0.00000
  Kinetic   617.35714   615.29587   604.30842    -4.41564    -0.88124    -0.13792
  Fock        0.00000     0.00000     0.00000     0.00000     0.00000     0.00000
  -------------------------------------------------------------------------------------
  Total       0.04501     0.04501     0.03812     0.00000     0.00000     0.00000
  in kB       1.83436     1.83436     1.55355     0.00000     0.00000     0.00000
  external pressure =        1.74 kB  Pullay stress =        0.00 kB


 VOLUME and BASIS-vectors are now :
 -----------------------------------------------------------------------------
  energy-cutoff  :      550.00
  volume of cell :       39.31
      direct lattice vectors                 reciprocal lattice vectors
     1.419974791  0.819822829  5.628115168     0.352118927  0.203295958  0.059226459
    -1.419974791  0.819822829  5.628115168    -0.352118927  0.203295958  0.059226459
    -0.000000000 -1.639645649  5.628115168     0.000000000 -0.406591916  0.059226459

  length of vectors
     5.862091625  5.862091625  5.862091623     0.410882902  0.410882902  0.410882902


 FORCES acting on ions
    electron-ion (+dipol)            ewald-force                    non-local-force                 convergence-correction
 -----------------------------------------------------------------------------------------------
   0.185E-13 0.111E-12 -.147E-12   0.138E-13 -.122E-13 0.000E+00   0.165E-21 -.551E-21 -.124E-21   0.729E-13 0.118E-12 0.873E-15
   -.451E-12 -.538E-12 -.557E-12   -.577E-14 -.219E-15 0.568E-13   -.128E-22 0.192E-23 -.923E-22   -.297E-15 -.445E-15 -.157E-14
   0.183E-10 -.139E-06 -.348E+03   -.319E-13 0.429E-07 0.344E+03   -.231E-15 0.260E-08 0.444E+01   0.115E-12 0.345E-12 0.530E-03
   -.189E-10 0.139E-06 0.348E+03   0.327E-13 -.429E-07 -.344E+03   0.233E-15 -.260E-08 -.444E+01   -.813E-13 -.284E-12 -.530E-03
 -----------------------------------------------------------------------------------------------
   -.105E-11 -.749E-11 -.966E-11   0.878E-14 -.944E-14 0.568E-13   0.221E-17 -.352E-16 0.178E-14   0.106E-12 0.178E-12 -.471E-14
 
 
 POSITION                                       TOTAL-FORCE (eV/Angst)
 -----------------------------------------------------------------------------------
      0.00000      0.00000      0.00000         0.000000      0.000000     -0.000000
     -0.00000      0.00000      8.44217         0.000000      0.000000     -0.000000
     -0.00000      0.00000      1.84997         0.000000     -0.000000     -0.002652
     -0.00000      0.00000     15.03438        -0.000000      0.000000      0.002652
 -----------------------------------------------------------------------------------
    total drift:                               -0.000000     -0.000000     -0.000000


--------------------------------------------------------------------------------------------------------



  FREE ENERGIE OF THE ION-ELECTRON SYSTEM (eV)
  ---------------------------------------------------
  free  energy   TOTEN  =       -27.41124277 eV

  energy  without entropy=      -27.41124277  energy(sigma->0) =      -27.41124277
 


--------------------------------------------------------------------------------------------------------


    POTLOK:  cpu time    0.2273: real time    0.2281


--------------------------------------------------------------------------------------------------------


 writing wavefunctions
     LOOP+:  cpu time  155.2728: real time  155.9932
    4ORBIT:  cpu time    0.0000: real time    0.0000

 total amount of memory used by VASP MPI-rank0   257630. kBytes
=======================================================================

   base      :      30000. kBytes
   nonl-proj :     136135. kBytes
   fftplans  :      15598. kBytes
   grid      :      33214. kBytes
   one-center:        322. kBytes
   wavefun   :      42361. kBytes
 
  
  
 General timing and accounting informations for this job:
 ========================================================
  
                  Total CPU time used (sec):      158.183
                            User time (sec):      156.616
                          System time (sec):        1.567
                         Elapsed time (sec):      159.167
  
                   Maximum memory used (kb):      332408.
                   Average memory used (kb):           0.
  
                          Minor page faults:       609695
                          Major page faults:            2
                 Voluntary context switches:          209
