<?xml version="1.0" encoding="ISO-8859-1"?>
<modeling>
 <generator>
  <i name="program" type="string">vasp </i>
  <i name="version" type="string">5.4.4.18Apr17-6-g9f103f2a35  </i>
  <i name="subversion" type="string">(build Dec 13 2019 19:06:22) complex            parallel </i>
  <i name="platform" type="string">LinuxIFC </i>
  <i name="date" type="string">2021 07 01 </i>
  <i name="time" type="string">23:28:56 </i>
 </generator>
 <incar>
  <i type="string" name="PREC">accurate</i>
  <i type="string" name="ALGO"> Fast</i>
  <i type="int" name="ISPIN">     1</i>
  <i type="int" name="IBRION">     1</i>
  <i name="EDIFF">      0.00000010</i>
  <i name="EDIFFG">     -0.00100000</i>
  <i type="int" name="NSW">    50</i>
  <i type="int" name="ISIF">     3</i>
  <i name="ENCUT">    550.00000000</i>
  <i type="int" name="NBANDS">    36</i>
  <i type="logical" name="LREAL"> F  </i>
  <i type="int" name="ISMEAR">     0</i>
  <v type="int" name="KPOINT_BSE">    -1     0     0     0</v>
  <i type="string" name="GGA"> PS</i>
 </incar>
 <structure name="primitive_cell" >
  <crystal>
   <varray name="basis" >
    <v>       1.43012364       0.82568227       5.65069925 </v>
    <v>      -1.43012364       0.82568227       5.65069925 </v>
    <v>       0.00000000      -1.65136453       5.65069925 </v>
   </varray>
   <i name="volume">     40.03501417 </i>
   <varray name="rec_basis" >
    <v>       0.34962012       0.20185327       0.05898975 </v>
    <v>      -0.34962012       0.20185327       0.05898975 </v>
    <v>      -0.00000000      -0.40370654       0.05898975 </v>
   </varray>
  </crystal>
  <varray name="positions" >
   <v>       0.00000000       0.00000000       0.00000000 </v>
   <v>       0.10979000       0.10979000       0.10979000 </v>
   <v>      -0.10979000      -0.10979000      -0.10979000 </v>
   <v>      -0.50000000      -0.50000000      -0.50000000 </v>
  </varray>
 </structure>
 <varray name="primitive_index" >
  <v type="int" >        1 </v>
  <v type="int" >        3 </v>
  <v type="int" >        4 </v>
  <v type="int" >        2 </v>
 </varray>
 <kpoints>
  <generation param="Gamma">
   <v type="int" name="divisions">      10       10       10 </v>
   <v name="usershift">      0.00000000       0.00000000       0.00000000 </v>
   <v name="genvec1">      0.10000000      -0.00000000      -0.00000000 </v>
   <v name="genvec2">     -0.00000000       0.10000000      -0.00000000 </v>
   <v name="genvec3">      0.00000000       0.00000000       0.10000000 </v>
   <v name="shift">      0.00000000       0.00000000       0.00000000 </v>
  </generation>
  <varray name="kpointlist" >
   <v>       0.00000000       0.00000000       0.00000000 </v>
   <v>       0.10000000      -0.00000000       0.00000000 </v>
   <v>       0.20000000       0.00000000      -0.00000000 </v>
   <v>       0.30000000       0.00000000       0.00000000 </v>
   <v>       0.40000000       0.00000000      -0.00000000 </v>
   <v>       0.50000000       0.00000000       0.00000000 </v>
   <v>       0.10000000       0.10000000       0.00000000 </v>
   <v>       0.20000000       0.10000000       0.00000000 </v>
   <v>       0.30000000       0.10000000       0.00000000 </v>
   <v>       0.40000000       0.10000000       0.00000000 </v>
   <v>       0.50000000       0.10000000       0.00000000 </v>
   <v>      -0.40000000       0.10000000      -0.00000000 </v>
   <v>      -0.30000000       0.10000000       0.00000000 </v>
   <v>      -0.20000000       0.10000000       0.00000000 </v>
   <v>      -0.10000000       0.10000000       0.00000000 </v>
   <v>       0.20000000       0.20000000       0.00000000 </v>
   <v>       0.30000000       0.20000000       0.00000000 </v>
   <v>       0.40000000       0.20000000       0.00000000 </v>
   <v>       0.50000000       0.20000000       0.00000000 </v>
   <v>      -0.40000000       0.20000000      -0.00000000 </v>
   <v>      -0.30000000       0.20000000      -0.00000000 </v>
   <v>      -0.20000000       0.20000000      -0.00000000 </v>
   <v>       0.30000000       0.30000000       0.00000000 </v>
   <v>       0.40000000       0.30000000       0.00000000 </v>
   <v>       0.50000000       0.30000000       0.00000000 </v>
   <v>      -0.40000000       0.30000000      -0.00000000 </v>
   <v>      -0.30000000       0.30000000      -0.00000000 </v>
   <v>       0.40000000       0.40000000       0.00000000 </v>
   <v>       0.50000000       0.40000000       0.00000000 </v>
   <v>      -0.40000000       0.40000000      -0.00000000 </v>
   <v>       0.50000000       0.50000000       0.00000000 </v>
   <v>       0.10000000       0.10000000       0.10000000 </v>
   <v>       0.20000000       0.10000000       0.10000000 </v>
   <v>       0.30000000       0.10000000       0.10000000 </v>
   <v>       0.40000000       0.10000000       0.10000000 </v>
   <v>       0.50000000       0.10000000       0.10000000 </v>
   <v>      -0.40000000       0.10000000       0.10000000 </v>
   <v>      -0.30000000       0.10000000       0.10000000 </v>
   <v>      -0.20000000       0.10000000       0.10000000 </v>
   <v>      -0.10000000       0.10000000       0.10000000 </v>
   <v>       0.20000000       0.20000000       0.10000000 </v>
   <v>       0.30000000       0.20000000       0.10000000 </v>
   <v>       0.40000000       0.20000000       0.10000000 </v>
   <v>       0.50000000       0.20000000       0.10000000 </v>
   <v>      -0.40000000       0.20000000       0.10000000 </v>
   <v>      -0.30000000       0.20000000       0.10000000 </v>
   <v>      -0.20000000       0.20000000       0.10000000 </v>
   <v>      -0.10000000       0.20000000       0.10000000 </v>
   <v>       0.30000000       0.30000000       0.10000000 </v>
   <v>       0.40000000       0.30000000       0.10000000 </v>
   <v>       0.50000000       0.30000000       0.10000000 </v>
   <v>      -0.40000000       0.30000000       0.10000000 </v>
   <v>      -0.30000000       0.30000000       0.10000000 </v>
   <v>      -0.20000000       0.30000000       0.10000000 </v>
   <v>      -0.10000000       0.30000000       0.10000000 </v>
   <v>       0.40000000       0.40000000       0.10000000 </v>
   <v>       0.50000000       0.40000000       0.10000000 </v>
   <v>      -0.40000000       0.40000000       0.10000000 </v>
   <v>      -0.30000000       0.40000000       0.10000000 </v>
   <v>      -0.20000000       0.40000000       0.10000000 </v>
   <v>      -0.10000000       0.40000000       0.10000000 </v>
   <v>       0.50000000       0.50000000       0.10000000 </v>
   <v>      -0.40000000       0.50000000       0.10000000 </v>
   <v>      -0.30000000       0.50000000       0.10000000 </v>
   <v>      -0.20000000       0.50000000       0.10000000 </v>
   <v>      -0.10000000       0.50000000       0.10000000 </v>
   <v>      -0.40000000      -0.40000000       0.10000000 </v>
   <v>      -0.30000000      -0.40000000       0.10000000 </v>
   <v>      -0.20000000      -0.40000000       0.10000000 </v>
   <v>      -0.30000000      -0.30000000       0.10000000 </v>
   <v>      -0.20000000      -0.30000000       0.10000000 </v>
   <v>      -0.20000000      -0.20000000       0.10000000 </v>
   <v>       0.20000000       0.20000000       0.20000000 </v>
   <v>       0.30000000       0.20000000       0.20000000 </v>
   <v>       0.40000000       0.20000000       0.20000000 </v>
   <v>       0.50000000       0.20000000       0.20000000 </v>
   <v>      -0.40000000       0.20000000       0.20000000 </v>
   <v>      -0.30000000       0.20000000       0.20000000 </v>
   <v>      -0.20000000       0.20000000       0.20000000 </v>
   <v>       0.30000000       0.30000000       0.20000000 </v>
   <v>       0.40000000       0.30000000       0.20000000 </v>
   <v>       0.50000000       0.30000000       0.20000000 </v>
   <v>      -0.40000000       0.30000000       0.20000000 </v>
   <v>      -0.30000000       0.30000000       0.20000000 </v>
   <v>      -0.20000000       0.30000000       0.20000000 </v>
   <v>       0.40000000       0.40000000       0.20000000 </v>
   <v>       0.50000000       0.40000000       0.20000000 </v>
   <v>      -0.40000000       0.40000000       0.20000000 </v>
   <v>      -0.30000000       0.40000000       0.20000000 </v>
   <v>      -0.20000000       0.40000000       0.20000000 </v>
   <v>       0.50000000       0.50000000       0.20000000 </v>
   <v>      -0.40000000       0.50000000       0.20000000 </v>
   <v>      -0.30000000       0.50000000       0.20000000 </v>
   <v>      -0.20000000       0.50000000       0.20000000 </v>
   <v>      -0.40000000      -0.40000000       0.20000000 </v>
   <v>      -0.30000000      -0.40000000       0.20000000 </v>
   <v>      -0.30000000      -0.30000000       0.20000000 </v>
   <v>       0.30000000       0.30000000       0.30000000 </v>
   <v>       0.40000000       0.30000000       0.30000000 </v>
   <v>       0.50000000       0.30000000       0.30000000 </v>
   <v>      -0.40000000       0.30000000       0.30000000 </v>
   <v>      -0.30000000       0.30000000       0.30000000 </v>
   <v>       0.40000000       0.40000000       0.30000000 </v>
   <v>       0.50000000       0.40000000       0.30000000 </v>
   <v>      -0.40000000       0.40000000       0.30000000 </v>
   <v>      -0.30000000       0.40000000       0.30000000 </v>
   <v>       0.50000000       0.50000000       0.30000000 </v>
   <v>      -0.40000000       0.50000000       0.30000000 </v>
   <v>      -0.30000000       0.50000000       0.30000000 </v>
   <v>      -0.40000000      -0.40000000       0.30000000 </v>
   <v>       0.40000000       0.40000000       0.40000000 </v>
   <v>       0.50000000       0.40000000       0.40000000 </v>
   <v>      -0.40000000       0.40000000       0.40000000 </v>
   <v>       0.50000000       0.50000000       0.40000000 </v>
   <v>      -0.40000000       0.50000000       0.40000000 </v>
   <v>       0.50000000       0.50000000       0.50000000 </v>
  </varray>
  <varray name="weights" >
   <v>       0.00100000 </v>
   <v>       0.00600000 </v>
   <v>       0.00600000 </v>
   <v>       0.00600000 </v>
   <v>       0.00600000 </v>
   <v>       0.00300000 </v>
   <v>       0.00600000 </v>
   <v>       0.01200000 </v>
   <v>       0.01200000 </v>
   <v>       0.01200000 </v>
   <v>       0.01200000 </v>
   <v>       0.01200000 </v>
   <v>       0.01200000 </v>
   <v>       0.01200000 </v>
   <v>       0.00600000 </v>
   <v>       0.00600000 </v>
   <v>       0.01200000 </v>
   <v>       0.01200000 </v>
   <v>       0.01200000 </v>
   <v>       0.01200000 </v>
   <v>       0.01200000 </v>
   <v>       0.00600000 </v>
   <v>       0.00600000 </v>
   <v>       0.01200000 </v>
   <v>       0.01200000 </v>
   <v>       0.01200000 </v>
   <v>       0.00600000 </v>
   <v>       0.00600000 </v>
   <v>       0.01200000 </v>
   <v>       0.00600000 </v>
   <v>       0.00300000 </v>
   <v>       0.00200000 </v>
   <v>       0.00600000 </v>
   <v>       0.00600000 </v>
   <v>       0.00600000 </v>
   <v>       0.00600000 </v>
   <v>       0.00600000 </v>
   <v>       0.00600000 </v>
   <v>       0.00600000 </v>
   <v>       0.00600000 </v>
   <v>       0.00600000 </v>
   <v>       0.01200000 </v>
   <v>       0.01200000 </v>
   <v>       0.01200000 </v>
   <v>       0.01200000 </v>
   <v>       0.01200000 </v>
   <v>       0.01200000 </v>
   <v>       0.01200000 </v>
   <v>       0.00600000 </v>
   <v>       0.01200000 </v>
   <v>       0.01200000 </v>
   <v>       0.01200000 </v>
   <v>       0.01200000 </v>
   <v>       0.01200000 </v>
   <v>       0.01200000 </v>
   <v>       0.00600000 </v>
   <v>       0.01200000 </v>
   <v>       0.01200000 </v>
   <v>       0.01200000 </v>
   <v>       0.01200000 </v>
   <v>       0.01200000 </v>
   <v>       0.00600000 </v>
   <v>       0.01200000 </v>
   <v>       0.01200000 </v>
   <v>       0.01200000 </v>
   <v>       0.00600000 </v>
   <v>       0.00600000 </v>
   <v>       0.01200000 </v>
   <v>       0.01200000 </v>
   <v>       0.00600000 </v>
   <v>       0.01200000 </v>
   <v>       0.00600000 </v>
   <v>       0.00200000 </v>
   <v>       0.00600000 </v>
   <v>       0.00600000 </v>
   <v>       0.00600000 </v>
   <v>       0.00600000 </v>
   <v>       0.00600000 </v>
   <v>       0.00600000 </v>
   <v>       0.00600000 </v>
   <v>       0.01200000 </v>
   <v>       0.01200000 </v>
   <v>       0.01200000 </v>
   <v>       0.01200000 </v>
   <v>       0.01200000 </v>
   <v>       0.00600000 </v>
   <v>       0.01200000 </v>
   <v>       0.01200000 </v>
   <v>       0.01200000 </v>
   <v>       0.01200000 </v>
   <v>       0.00600000 </v>
   <v>       0.01200000 </v>
   <v>       0.01200000 </v>
   <v>       0.00600000 </v>
   <v>       0.00600000 </v>
   <v>       0.01200000 </v>
   <v>       0.00600000 </v>
   <v>       0.00200000 </v>
   <v>       0.00600000 </v>
   <v>       0.00600000 </v>
   <v>       0.00600000 </v>
   <v>       0.00600000 </v>
   <v>       0.00600000 </v>
   <v>       0.01200000 </v>
   <v>       0.01200000 </v>
   <v>       0.01200000 </v>
   <v>       0.00600000 </v>
   <v>       0.01200000 </v>
   <v>       0.00600000 </v>
   <v>       0.00600000 </v>
   <v>       0.00200000 </v>
   <v>       0.00600000 </v>
   <v>       0.00600000 </v>
   <v>       0.00600000 </v>
   <v>       0.00600000 </v>
   <v>       0.00100000 </v>
  </varray>
 </kpoints>
 <parameters>
  <separator name="general" >
   <i type="string" name="SYSTEM">unknown system</i>
   <i type="logical" name="LCOMPAT"> F  </i>
  </separator>
  <separator name="electronic" >
   <i type="string" name="PREC">accura</i>
   <i name="ENMAX">    550.00000000</i>
   <i name="ENAUG">    982.89200000</i>
   <i name="EDIFF">      0.00000010</i>
   <i type="int" name="IALGO">    68</i>
   <i type="int" name="IWAVPR">    11</i>
   <i type="int" name="NBANDS">    36</i>
   <i name="NELECT">     34.00000000</i>
   <i type="int" name="TURBO">     0</i>
   <i type="int" name="IRESTART">     0</i>
   <i type="int" name="NREBOOT">     0</i>
   <i type="int" name="NMIN">     0</i>
   <i name="EREF">      0.00000000</i>
   <separator name="electronic smearing" >
    <i type="int" name="ISMEAR">     0</i>
    <i name="SIGMA">      0.20000000</i>
    <i name="KSPACING">      0.50000000</i>
    <i type="logical" name="KGAMMA"> T  </i>
   </separator>
   <separator name="electronic projectors" >
    <i type="logical" name="LREAL"> F  </i>
    <v name="ROPT">      0.00000000      0.00000000      0.00000000</v>
    <i type="int" name="LMAXPAW">  -100</i>
    <i type="int" name="LMAXMIX">     2</i>
    <i type="logical" name="NLSPLINE"> F  </i>
   </separator>
   <separator name="electronic startup" >
    <i type="int" name="ISTART">     0</i>
    <i type="int" name="ICHARG">     2</i>
    <i type="int" name="INIWAV">     1</i>
   </separator>
   <separator name="electronic spin" >
    <i type="int" name="ISPIN">     1</i>
    <i type="logical" name="LNONCOLLINEAR"> F  </i>
    <v name="MAGMOM">      1.00000000      1.00000000      1.00000000      1.00000000</v>
    <i name="NUPDOWN">     -1.00000000</i>
    <i type="logical" name="LSORBIT"> F  </i>
    <v name="SAXIS">      0.00000000      0.00000000      1.00000000</v>
    <i type="logical" name="LSPIRAL"> F  </i>
    <v name="QSPIRAL">      0.00000000      0.00000000      0.00000000</v>
    <i type="logical" name="LZEROZ"> F  </i>
   </separator>
   <separator name="electronic exchange-correlation" >
    <i type="logical" name="LASPH"> F  </i>
    <i type="logical" name="LMETAGGA"> F  </i>
   </separator>
   <separator name="electronic convergence" >
    <i type="int" name="NELM">    60</i>
    <i type="int" name="NELMDL">    -5</i>
    <i type="int" name="NELMIN">     2</i>
    <i name="ENINI">    550.00000000</i>
    <separator name="electronic convergence detail" >
     <i type="logical" name="LDIAG"> T  </i>
     <i type="logical" name="LSUBROT"> F  </i>
     <i name="WEIMIN">      0.00100000</i>
     <i name="EBREAK">      0.00000000</i>
     <i name="DEPER">      0.30000000</i>
     <i type="int" name="NRMM">     4</i>
     <i name="TIME">      0.40000000</i>
    </separator>
   </separator>
   <separator name="electronic mixer" >
    <i name="AMIX">      0.40000000</i>
    <i name="BMIX">      1.00000000</i>
    <i name="AMIN">      0.10000000</i>
    <i name="AMIX_MAG">      1.60000000</i>
    <i name="BMIX_MAG">      1.00000000</i>
    <separator name="electronic mixer details" >
     <i type="int" name="IMIX">     4</i>
     <i type="logical" name="MIXFIRST"> F  </i>
     <i type="int" name="MAXMIX">   -45</i>
     <i name="WC">    100.00000000</i>
     <i type="int" name="INIMIX">     1</i>
     <i type="int" name="MIXPRE">     1</i>
     <i type="int" name="MREMOVE">     5</i>
    </separator>
   </separator>
   <separator name="electronic dipolcorrection" >
    <i type="logical" name="LDIPOL"> F  </i>
    <i type="logical" name="LMONO"> F  </i>
    <i type="int" name="IDIPOL">     0</i>
    <i name="EPSILON">      1.00000000</i>
    <v name="DIPOL">   -100.00000000   -100.00000000   -100.00000000</v>
    <i name="EFIELD">      0.00000000</i>
   </separator>
  </separator>
  <separator name="grids" >
   <i type="int" name="NGX">    48</i>
   <i type="int" name="NGY">    48</i>
   <i type="int" name="NGZ">    48</i>
   <i type="int" name="NGXF">    96</i>
   <i type="int" name="NGYF">    96</i>
   <i type="int" name="NGZF">    96</i>
   <i type="logical" name="ADDGRID"> F  </i>
  </separator>
  <separator name="ionic" >
   <i type="int" name="NSW">    50</i>
   <i type="int" name="IBRION">     1</i>
   <i type="int" name="MDALGO">     0</i>
   <i type="int" name="ISIF">     3</i>
   <i name="PSTRESS">      0.00000000</i>
   <i name="EDIFFG">     -0.00100000</i>
   <i type="int" name="NFREE">     0</i>
   <i name="POTIM">      0.50000000</i>
   <i name="SMASS">     -3.00000000</i>
   <i name="SCALEE">      1.00000000</i>
  </separator>
  <separator name="ionic md" >
   <i name="TEBEG">      0.00010000</i>
   <i name="TEEND">      0.00010000</i>
   <i type="int" name="NBLOCK">     1</i>
   <i type="int" name="KBLOCK">    50</i>
   <i type="int" name="NPACO">   256</i>
   <i name="APACO">     16.00000000</i>
  </separator>
  <separator name="symmetry" >
   <i type="int" name="ISYM">     2</i>
   <i name="SYMPREC">      0.00001000</i>
  </separator>
  <separator name="dos" >
   <i type="int" name="LORBIT">     0</i>
   <v name="RWIGS">     -1.00000000     -1.00000000     -1.00000000</v>
   <i type="int" name="NEDOS">   301</i>
   <i name="EMIN">     10.00000000</i>
   <i name="EMAX">    -10.00000000</i>
   <i name="EFERMI">      0.00000000</i>
  </separator>
  <separator name="writing" >
   <i type="int" name="NWRITE">     2</i>
   <i type="logical" name="LWAVE"> T  </i>
   <i type="logical" name="LDOWNSAMPLE"> F  </i>
   <i type="logical" name="LCHARG"> T  </i>
   <i type="logical" name="LPARD"> F  </i>
   <i type="logical" name="LVTOT"> F  </i>
   <i type="logical" name="LVHAR"> F  </i>
   <i type="logical" name="LELF"> F  </i>
   <i type="logical" name="LOPTICS"> F  </i>
   <v name="STM">      0.00000000      0.00000000      0.00000000      0.00000000      0.00000000      0.00000000      0.00000000</v>
  </separator>
  <separator name="performance" >
   <i type="int" name="NPAR">     2</i>
   <i type="int" name="NSIM">     4</i>
   <i type="int" name="NBLK">    -1</i>
   <i type="logical" name="LPLANE"> T  </i>
   <i type="logical" name="LSCALAPACK"> T  </i>
   <i type="logical" name="LSCAAWARE"> F  </i>
   <i type="logical" name="LSCALU"> F  </i>
   <i type="logical" name="LASYNC"> F  </i>
   <i type="logical" name="LORBITALREAL"> F  </i>
  </separator>
  <separator name="miscellaneous" >
   <i type="int" name="IDIOT">     3</i>
   <i type="int" name="ISPECIAL">     0</i>
   <i type="logical" name="LMUSIC"> F  </i>
   <v name="POMASS">     63.54600000     26.98200000     16.00000000</v>
   <v name="DARWINR">      0.00000000      0.00000000      0.00000000</v>
   <v name="DARWINV">      1.00000000      1.00000000      1.00000000</v>
   <i type="logical" name="LCORR"> T  </i>
  </separator>
  <i type="logical" name="GGA_COMPAT"> T  </i>
  <i type="logical" name="LBERRY"> F  </i>
  <i type="int" name="ICORELEVEL">     0</i>
  <i type="logical" name="LDAU"> F  </i>
  <i type="int" name="I_CONSTRAINED_M">     0</i>
  <separator name="electronic exchange-correlation" >
   <i type="string" name="GGA">PS</i>
   <i type="int" name="VOSKOWN">     0</i>
   <i type="logical" name="LHFCALC"> F  </i>
   <i type="string" name="PRECFOCK"></i>
   <i type="logical" name="LSYMGRAD"> F  </i>
   <i type="logical" name="LHFONE"> F  </i>
   <i type="logical" name="LRHFCALC"> F  </i>
   <i type="logical" name="LTHOMAS"> F  </i>
   <i type="logical" name="LMODELHF"> F  </i>
   <i name="ENCUT4O">     -1.00000000</i>
   <i type="int" name="EXXOEP">     0</i>
   <i type="int" name="FOURORBIT">     0</i>
   <i name="AEXX">      0.00000000</i>
   <i name="HFALPHA">      0.00000000</i>
   <i name="MCALPHA">      0.00000000</i>
   <i name="ALDAX">      1.00000000</i>
   <i name="AGGAX">      1.00000000</i>
   <i name="ALDAC">      1.00000000</i>
   <i name="AGGAC">      1.00000000</i>
   <i type="int" name="NKREDX">     1</i>
   <i type="int" name="NKREDY">     1</i>
   <i type="int" name="NKREDZ">     1</i>
   <i type="logical" name="SHIFTRED"> F  </i>
   <i type="logical" name="ODDONLY"> F  </i>
   <i type="logical" name="EVENONLY"> F  </i>
   <i type="int" name="LMAXFOCK">     0</i>
   <i type="int" name="NMAXFOCKAE">     0</i>
   <i type="logical" name="LFOCKAEDFT"> F  </i>
   <i name="HFSCREEN">      0.00000000</i>
   <i name="HFSCREENC">      0.00000000</i>
   <i type="int" name="NBANDSGWLOW">     0</i>
  </separator>
  <separator name="vdW DFT" >
   <i type="logical" name="LUSE_VDW"> F  </i>
   <i name="Zab_VDW">     -0.84910000</i>
   <i name="PARAM1">      0.12340000</i>
   <i name="PARAM2">      1.00000000</i>
   <i name="PARAM3">      0.00000000</i>
  </separator>
  <separator name="model GW" >
   <i type="int" name="MODEL_GW">     0</i>
   <i name="MODEL_EPS0">      6.00525212</i>
   <i name="MODEL_ALPHA">      1.00000000</i>
  </separator>
  <separator name="linear response parameters" >
   <i type="logical" name="LEPSILON"> F  </i>
   <i type="logical" name="LRPA"> F  </i>
   <i type="logical" name="LNABLA"> F  </i>
   <i type="logical" name="LVEL"> F  </i>
   <i type="int" name="KINTER">     0</i>
   <i name="CSHIFT">      0.10000000</i>
   <i name="OMEGAMAX">     -1.00000000</i>
   <i name="DEG_THRESHOLD">      0.00200000</i>
   <i name="RTIME">     -0.10000000</i>
   <i name="WPLASMAI">      0.00000000</i>
   <v name="DFIELD">      0.00000000      0.00000000      0.00000000</v>
   <v name="WPLASMA">      0.00000000      0.00000000      0.00000000      0.00000000      0.00000000      0.00000000      0.00000000      0.00000000      0.00000000</v>
  </separator>
  <separator name="orbital magnetization" >
   <i type="logical" name="NUCIND"> F  </i>
   <v name="MAGPOS">      0.00000000      0.00000000      0.00000000</v>
   <i type="logical" name="LNICSALL"> T  </i>
   <i type="logical" name="ORBITALMAG"> F  </i>
   <i type="logical" name="LMAGBLOCH"> F  </i>
   <i type="logical" name="LCHIMAG"> F  </i>
   <i type="logical" name="LGAUGE"> T  </i>
   <i type="int" name="MAGATOM">     0</i>
   <v name="MAGDIPOL">      0.00000000      0.00000000      0.00000000</v>
   <v name="AVECCONST">      0.00000000      0.00000000      0.00000000</v>
  </separator>
  <separator name="response functions" >
   <i type="logical" name="LADDER"> F  </i>
   <i type="logical" name="LRPAFORCE"> F  </i>
   <i type="logical" name="LFXC"> F  </i>
   <i type="logical" name="LHARTREE"> T  </i>
   <i type="int" name="IBSE">     0</i>
   <v type="int" name="KPOINT">    -1     0     0     0</v>
   <i type="logical" name="LTCTE"> F  </i>
   <i type="logical" name="LTETE"> F  </i>
   <i type="logical" name="LTRIPLET"> F  </i>
   <i type="logical" name="LFXCEPS"> F  </i>
   <i type="logical" name="LFXHEG"> F  </i>
   <i type="int" name="NATURALO">     2</i>
   <i type="logical" name="L2ORDER"> F  </i>
   <i type="logical" name="LMP2LT"> F  </i>
   <i type="logical" name="LUSEW"> F  </i>
   <i name="ENCUTGW">     -2.00000000</i>
   <i name="ENCUTGWSOFT">     -2.00000000</i>
   <i name="ENCUTLF">     -1.00000000</i>
   <i type="int" name="LMAXMP2">    -1</i>
   <i name="SCISSOR">      0.00000000</i>
   <i type="int" name="NOMEGA">     0</i>
   <i type="int" name="NOMEGAR">     0</i>
   <i type="int" name="NBANDSGW">    -1</i>
   <i type="int" name="NBANDSO">    -1</i>
   <i type="int" name="NBANDSV">    -1</i>
   <i type="int" name="NELM">     1</i>
   <i type="int" name="NELMHF">     1</i>
   <i type="int" name="DIM">     3</i>
   <i type="int" name="ANTIRES">     0</i>
   <i name="OMEGAMAX">    -30.00000000</i>
   <i name="OMEGAMIN">    -30.00000000</i>
   <i name="OMEGATL">   -200.00000000</i>
   <i type="int" name="OMEGAGRID">   140</i>
   <i name="CSHIFT">     -0.10000000</i>
   <i type="logical" name="SELFENERGY"> F  </i>
   <i type="logical" name="LSPECTRAL"> F  </i>
   <i type="logical" name="LSPECTRALGW"> F  </i>
   <i type="logical" name="LSINGLES"> F  </i>
   <i type="logical" name="LFERMIGW"> F  </i>
   <i type="logical" name="ODDONLYGW"> F  </i>
   <i type="logical" name="EVENONLYGW"> F  </i>
   <i type="int" name="NKREDLFX">     1</i>
   <i type="int" name="NKREDLFY">     1</i>
   <i type="int" name="NKREDLFZ">     1</i>
   <i type="int" name="MAXMEM">  2800</i>
   <i type="int" name="TELESCOPE">     0</i>
   <i type="int" name="TAUPAR">     1</i>
   <i type="int" name="OMEGAPAR">    -1</i>
   <i name="LAMBDA">      1.00000000</i>
  </separator>
  <separator name="External order field" >
   <i name="OFIELD_KAPPA">      0.00000000</i>
   <v name="OFIELD_K">      0.00000000      0.00000000      0.00000000</v>
   <i name="OFIELD_Q6_NEAR">      0.00000000</i>
   <i name="OFIELD_Q6_FAR">      0.00000000</i>
   <i name="OFIELD_A">      0.00000000</i>
  </separator>
 </parameters>
 <atominfo>
  <atoms>       4 </atoms>
  <types>       3 </types>
  <array name="atoms" >
   <dimension dim="1">ion</dimension>
   <field type="string">element</field>
   <field type="int">atomtype</field>
   <set>
    <rc><c>Cu</c><c>   1</c></rc>
    <rc><c>Al</c><c>   2</c></rc>
    <rc><c>O </c><c>   3</c></rc>
    <rc><c>O </c><c>   3</c></rc>
   </set>
  </array>
  <array name="atomtypes" >
   <dimension dim="1">type</dimension>
   <field type="int">atomspertype</field>
   <field type="string">element</field>
   <field>mass</field>
   <field>valence</field>
   <field type="string">pseudopotential</field>
   <set>
    <rc><c>   1</c><c>Cu</c><c>     63.54600000</c><c>     19.00000000</c><c>  PAW_PBE Cu_sv_GW 05Dec2013            </c></rc>
    <rc><c>   1</c><c>Al</c><c>     26.98200000</c><c>      3.00000000</c><c>  PAW_PBE Al_GW 19Mar2012               </c></rc>
    <rc><c>   2</c><c>O </c><c>     16.00000000</c><c>      6.00000000</c><c>  PAW_PBE O_GW 28Sep2005                </c></rc>
   </set>
  </array>
 </atominfo>
 <structure name="initialpos" >
  <crystal>
   <varray name="basis" >
    <v>       1.43012364       0.82568227       5.65069925 </v>
    <v>      -1.43012364       0.82568227       5.65069925 </v>
    <v>       0.00000000      -1.65136453       5.65069925 </v>
   </varray>
   <i name="volume">     40.03501417 </i>
   <varray name="rec_basis" >
    <v>       0.34962012       0.20185327       0.05898975 </v>
    <v>      -0.34962012       0.20185327       0.05898975 </v>
    <v>      -0.00000000      -0.40370654       0.05898975 </v>
   </varray>
  </crystal>
  <varray name="positions" >
   <v>       0.00000000       0.00000000       0.00000000 </v>
   <v>       0.50000000       0.50000000       0.50000000 </v>
   <v>       0.10979000       0.10979000       0.10979000 </v>
   <v>       0.89021000       0.89021000       0.89021000 </v>
  </varray>
 </structure>
 <calculation>
  <scstep>
   <time name="dav">   21.03   21.15</time>
   <time name="total">   21.40   21.52</time>
   <energy>
    <i name="alphaZ">    164.28044973 </i>
    <i name="ewald">  -3333.64587894 </i>
    <i name="hartreedc">  -2435.67721130 </i>
    <i name="XCdc">    179.84347543 </i>
    <i name="pawpsdc">   5069.77841691 </i>
    <i name="pawaedc">  -5389.95852422 </i>
    <i name="eentropy">     -0.03062056 </i>
    <i name="bandstr">   -132.37351694 </i>
    <i name="atom">   6293.50105541 </i>
    <i name="e_fr_energy">    415.71764554 </i>
    <i name="e_wo_entrp">    415.74826610 </i>
    <i name="e_0_energy">    415.73295582 </i>
   </energy>
  </scstep>
  <scstep>
   <time name="dav">   19.81   19.93</time>
   <time name="total">   19.81   19.93</time>
   <energy>
    <i name="e_fr_energy">      2.54824412 </i>
    <i name="e_wo_entrp">      2.55479030 </i>
    <i name="e_0_energy">      2.55151721 </i>
   </energy>
  </scstep>
  <scstep>
   <time name="dav">   20.59   20.71</time>
   <time name="total">   20.59   20.71</time>
   <energy>
    <i name="e_fr_energy">    -30.35817508 </i>
    <i name="e_wo_entrp">    -30.34745104 </i>
    <i name="e_0_energy">    -30.35281306 </i>
   </energy>
  </scstep>
  <scstep>
   <time name="dav">   16.67   16.77</time>
   <time name="total">   16.68   16.77</time>
   <energy>
    <i name="e_fr_energy">    -31.54807753 </i>
    <i name="e_wo_entrp">    -31.53664613 </i>
    <i name="e_0_energy">    -31.54236183 </i>
   </energy>
  </scstep>
  <scstep>
   <time name="dav">   17.27   17.37</time>
   <time name="total">   18.04   18.14</time>
   <energy>
    <i name="e_fr_energy">    -31.59456334 </i>
    <i name="e_wo_entrp">    -31.58313132 </i>
    <i name="e_0_energy">    -31.58884733 </i>
   </energy>
  </scstep>
  <scstep>
   <time name="diag">    2.70    2.72</time>
   <time name="diis">   15.88   15.97</time>
   <time name="orth">    0.06    0.06</time>
   <time name="total">   19.77   19.88</time>
   <energy>
    <i name="e_fr_energy">    -29.59441611 </i>
    <i name="e_wo_entrp">    -29.59441611 </i>
    <i name="e_0_energy">    -29.59441611 </i>
   </energy>
  </scstep>
  <scstep>
   <time name="diag">    2.71    2.72</time>
   <time name="diis">   16.96   17.06</time>
   <time name="orth">    0.07    0.07</time>
   <time name="total">   20.87   20.99</time>
   <energy>
    <i name="e_fr_energy">    -27.36956171 </i>
    <i name="e_wo_entrp">    -27.36956149 </i>
    <i name="e_0_energy">    -27.36956160 </i>
   </energy>
  </scstep>
  <scstep>
   <time name="diag">    2.71    2.72</time>
   <time name="diis">   17.02   17.12</time>
   <time name="orth">    0.06    0.06</time>
   <time name="total">   20.91   21.03</time>
   <energy>
    <i name="e_fr_energy">    -27.39554337 </i>
    <i name="e_wo_entrp">    -27.39554337 </i>
    <i name="e_0_energy">    -27.39554337 </i>
   </energy>
  </scstep>
  <scstep>
   <time name="diag">    2.71    2.73</time>
   <time name="diis">   17.85   17.96</time>
   <time name="orth">    0.07    0.07</time>
   <time name="total">   21.75   21.88</time>
   <energy>
    <i name="e_fr_energy">    -27.40390669 </i>
    <i name="e_wo_entrp">    -27.40390669 </i>
    <i name="e_0_energy">    -27.40390669 </i>
   </energy>
  </scstep>
  <scstep>
   <time name="diag">    2.74    2.75</time>
   <time name="diis">   15.75   15.84</time>
   <time name="orth">    0.05    0.05</time>
   <time name="total">   19.63   19.75</time>
   <energy>
    <i name="e_fr_energy">    -27.40814698 </i>
    <i name="e_wo_entrp">    -27.40814698 </i>
    <i name="e_0_energy">    -27.40814698 </i>
   </energy>
  </scstep>
  <scstep>
   <time name="diag">    2.34    2.36</time>
   <time name="diis">   16.08   16.18</time>
   <time name="orth">    0.06    0.06</time>
   <time name="total">   19.54   19.65</time>
   <energy>
    <i name="e_fr_energy">    -27.40918601 </i>
    <i name="e_wo_entrp">    -27.40918601 </i>
    <i name="e_0_energy">    -27.40918601 </i>
   </energy>
  </scstep>
  <scstep>
   <time name="diag">    2.71    2.73</time>
   <time name="diis">   18.72   18.83</time>
   <time name="orth">    0.06    0.06</time>
   <time name="total">   22.61   22.74</time>
   <energy>
    <i name="e_fr_energy">    -27.40967719 </i>
    <i name="e_wo_entrp">    -27.40967719 </i>
    <i name="e_0_energy">    -27.40967719 </i>
   </energy>
  </scstep>
  <scstep>
   <time name="diag">    2.72    2.74</time>
   <time name="diis">   19.13   19.24</time>
   <time name="orth">    0.06    0.06</time>
   <time name="total">   23.03   23.17</time>
   <energy>
    <i name="e_fr_energy">    -27.40988604 </i>
    <i name="e_wo_entrp">    -27.40988604 </i>
    <i name="e_0_energy">    -27.40988604 </i>
   </energy>
  </scstep>
  <scstep>
   <time name="diag">    2.69    2.71</time>
   <time name="diis">   19.13   19.24</time>
   <time name="orth">    0.07    0.07</time>
   <time name="total">   23.01   23.15</time>
   <energy>
    <i name="e_fr_energy">    -27.40995372 </i>
    <i name="e_wo_entrp">    -27.40995372 </i>
    <i name="e_0_energy">    -27.40995372 </i>
   </energy>
  </scstep>
  <scstep>
   <time name="diag">    2.69    2.70</time>
   <time name="diis">   19.51   19.63</time>
   <time name="orth">    0.06    0.06</time>
   <time name="total">   23.37   23.51</time>
   <energy>
    <i name="e_fr_energy">    -27.40997630 </i>
    <i name="e_wo_entrp">    -27.40997630 </i>
    <i name="e_0_energy">    -27.40997630 </i>
   </energy>
  </scstep>
  <scstep>
   <time name="diag">    2.42    2.44</time>
   <time name="diis">   14.47   14.55</time>
   <time name="orth">    0.06    0.06</time>
   <time name="total">   18.04   18.14</time>
   <energy>
    <i name="e_fr_energy">    -27.40998589 </i>
    <i name="e_wo_entrp">    -27.40998589 </i>
    <i name="e_0_energy">    -27.40998589 </i>
   </energy>
  </scstep>
  <scstep>
   <time name="diag">    2.32    2.33</time>
   <time name="diis">   13.24   13.31</time>
   <time name="orth">    0.05    0.05</time>
   <time name="total">   16.57   16.66</time>
   <energy>
    <i name="e_fr_energy">    -27.40998870 </i>
    <i name="e_wo_entrp">    -27.40998870 </i>
    <i name="e_0_energy">    -27.40998870 </i>
   </energy>
  </scstep>
  <scstep>
   <time name="diag">    2.13    2.14</time>
   <time name="diis">   12.42   12.48</time>
   <time name="orth">    0.05    0.05</time>
   <time name="total">   15.51   15.58</time>
   <energy>
    <i name="e_fr_energy">    -27.40999033 </i>
    <i name="e_wo_entrp">    -27.40999033 </i>
    <i name="e_0_energy">    -27.40999033 </i>
   </energy>
  </scstep>
  <scstep>
   <time name="diag">    2.18    2.19</time>
   <time name="diis">   11.19   11.25</time>
   <time name="orth">    0.05    0.05</time>
   <time name="total">   14.33   14.39</time>
   <energy>
    <i name="e_fr_energy">    -27.40999116 </i>
    <i name="e_wo_entrp">    -27.40999116 </i>
    <i name="e_0_energy">    -27.40999116 </i>
   </energy>
  </scstep>
  <scstep>
   <time name="diag">    2.12    2.13</time>
   <time name="diis">   10.15   10.20</time>
   <time name="orth">    0.05    0.05</time>
   <time name="total">   13.23   13.29</time>
   <energy>
    <i name="e_fr_energy">    -27.40999166 </i>
    <i name="e_wo_entrp">    -27.40999166 </i>
    <i name="e_0_energy">    -27.40999166 </i>
   </energy>
  </scstep>
  <scstep>
   <time name="diag">    2.14    2.15</time>
   <time name="diis">    9.18    9.22</time>
   <time name="orth">    0.05    0.05</time>
   <time name="total">   12.27   12.33</time>
   <energy>
    <i name="e_fr_energy">    -27.40999175 </i>
    <i name="e_wo_entrp">    -27.40999175 </i>
    <i name="e_0_energy">    -27.40999175 </i>
   </energy>
  </scstep>
  <scstep>
   <time name="diag">    2.12    2.13</time>
   <time name="diis">    8.79    8.83</time>
   <time name="orth">    0.06    0.06</time>
   <time name="total">   11.19   11.24</time>
   <energy>
    <i name="alphaZ">    164.28044973 </i>
    <i name="ewald">  -3333.64587894 </i>
    <i name="hartreedc">  -2410.48348941 </i>
    <i name="XCdc">    180.76412175 </i>
    <i name="pawpsdc">   5385.69427734 </i>
    <i name="pawaedc">  -5709.43027144 </i>
    <i name="eentropy">     -0.00000000 </i>
    <i name="bandstr">   -598.09025627 </i>
    <i name="atom">   6293.50105541 </i>
    <i name="e_fr_energy">    -27.40999182 </i>
    <i name="e_wo_entrp">    -27.40999182 </i>
    <i name="e_0_energy">    -27.40999182 </i>
   </energy>
  </scstep>
  <structure>
   <crystal>
    <varray name="basis" >
     <v>       1.43012364       0.82568227       5.65069925 </v>
     <v>      -1.43012364       0.82568227       5.65069925 </v>
     <v>       0.00000000      -1.65136453       5.65069925 </v>
    </varray>
    <i name="volume">     40.03501417 </i>
    <varray name="rec_basis" >
     <v>       0.34962012       0.20185327       0.05898975 </v>
     <v>      -0.34962012       0.20185327       0.05898975 </v>
     <v>      -0.00000000      -0.40370654       0.05898975 </v>
    </varray>
   </crystal>
   <varray name="positions" >
    <v>       0.00000000       0.00000000       0.00000000 </v>
    <v>       0.50000000       0.50000000       0.50000000 </v>
    <v>       0.10979000       0.10979000       0.10979000 </v>
    <v>       0.89021000       0.89021000       0.89021000 </v>
   </varray>
  </structure>
  <varray name="forces" >
   <v>       0.00000000       0.00000000      -0.00000000 </v>
   <v>       0.00000000       0.00000000      -0.00000000 </v>
   <v>      -0.00000000      -0.00000000      -0.04484365 </v>
   <v>       0.00000000       0.00000000       0.04484365 </v>
  </varray>
  <varray name="stress" >
   <v>     -29.15070028       0.00000000      -0.00000000 </v>
   <v>       0.00000000     -29.15070015      -0.00000002 </v>
   <v>       0.00000000      -0.00000002     -36.16471892 </v>
  </varray>
  <energy>
   <i name="e_fr_energy">    -27.40999182 </i>
   <i name="e_wo_entrp">    -27.40999182 </i>
   <i name="e_0_energy">     -0.00000000 </i>
  </energy>
  <time name="totalsc">  417.01  419.33</time>
 </calculation>
 <calculation>
  <scstep>
   <time name="dav">   10.20   10.25</time>
   <time name="total">   11.10   11.15</time>
   <energy>
    <i name="alphaZ">    169.04784520 </i>
    <i name="ewald">  -3364.19648065 </i>
    <i name="hartreedc">  -2434.65596200 </i>
    <i name="XCdc">    182.71360395 </i>
    <i name="pawpsdc">   5385.69581792 </i>
    <i name="pawaedc">  -5709.43164460 </i>
    <i name="eentropy">     -0.00002366 </i>
    <i name="bandstr">   -550.80487567 </i>
    <i name="atom">   6293.50105541 </i>
    <i name="e_fr_energy">    -28.13066410 </i>
    <i name="e_wo_entrp">    -28.13064044 </i>
    <i name="e_0_energy">    -28.13065227 </i>
   </energy>
  </scstep>
  <scstep>
   <time name="diag">    2.12    2.13</time>
   <time name="diis">   10.43   10.48</time>
   <time name="orth">    0.05    0.05</time>
   <time name="total">   13.46   13.52</time>
   <energy>
    <i name="e_fr_energy">    -27.91210035 </i>
    <i name="e_wo_entrp">    -27.91210035 </i>
    <i name="e_0_energy">    -27.91210035 </i>
   </energy>
  </scstep>
  <scstep>
   <time name="diag">    2.15    2.16</time>
   <time name="diis">   10.45   10.50</time>
   <time name="orth">    0.05    0.05</time>
   <time name="total">   13.50   13.56</time>
   <energy>
    <i name="e_fr_energy">    -27.40135298 </i>
    <i name="e_wo_entrp">    -27.40135298 </i>
    <i name="e_0_energy">    -27.40135298 </i>
   </energy>
  </scstep>
  <scstep>
   <time name="diag">    2.14    2.15</time>
   <time name="diis">   11.69   11.75</time>
   <time name="orth">    0.06    0.06</time>
   <time name="total">   14.73   14.80</time>
   <energy>
    <i name="e_fr_energy">    -27.41113545 </i>
    <i name="e_wo_entrp">    -27.41113545 </i>
    <i name="e_0_energy">    -27.41113545 </i>
   </energy>
  </scstep>
  <scstep>
   <time name="diag">    2.14    2.15</time>
   <time name="diis">   12.09   12.15</time>
   <time name="orth">    0.05    0.05</time>
   <time name="total">   15.13   15.20</time>
   <energy>
    <i name="e_fr_energy">    -27.41262566 </i>
    <i name="e_wo_entrp">    -27.41262566 </i>
    <i name="e_0_energy">    -27.41262566 </i>
   </energy>
  </scstep>
  <scstep>
   <time name="diag">    2.13    2.14</time>
   <time name="diis">   11.47   11.53</time>
   <time name="orth">    0.06    0.06</time>
   <time name="total">   14.51   14.58</time>
   <energy>
    <i name="e_fr_energy">    -27.41126940 </i>
    <i name="e_wo_entrp">    -27.41126940 </i>
    <i name="e_0_energy">    -27.41126940 </i>
   </energy>
  </scstep>
  <scstep>
   <time name="diag">    2.10    2.11</time>
   <time name="diis">   12.60   12.66</time>
   <time name="orth">    0.05    0.05</time>
   <time name="total">   15.65   15.72</time>
   <energy>
    <i name="e_fr_energy">    -27.41226352 </i>
    <i name="e_wo_entrp">    -27.41226352 </i>
    <i name="e_0_energy">    -27.41226352 </i>
   </energy>
  </scstep>
  <scstep>
   <time name="diag">    2.09    2.10</time>
   <time name="diis">   12.47   12.53</time>
   <time name="orth">    0.06    0.06</time>
   <time name="total">   15.50   15.57</time>
   <energy>
    <i name="e_fr_energy">    -27.41247321 </i>
    <i name="e_wo_entrp">    -27.41247321 </i>
    <i name="e_0_energy">    -27.41247321 </i>
   </energy>
  </scstep>
  <scstep>
   <time name="diag">    2.08    2.09</time>
   <time name="diis">   12.68   12.74</time>
   <time name="orth">    0.05    0.05</time>
   <time name="total">   15.71   15.79</time>
   <energy>
    <i name="e_fr_energy">    -27.41254892 </i>
    <i name="e_wo_entrp">    -27.41254892 </i>
    <i name="e_0_energy">    -27.41254892 </i>
   </energy>
  </scstep>
  <scstep>
   <time name="diag">    2.09    2.10</time>
   <time name="diis">   12.79   12.86</time>
   <time name="orth">    0.05    0.05</time>
   <time name="total">   15.85   15.93</time>
   <energy>
    <i name="e_fr_energy">    -27.41257910 </i>
    <i name="e_wo_entrp">    -27.41257910 </i>
    <i name="e_0_energy">    -27.41257910 </i>
   </energy>
  </scstep>
  <scstep>
   <time name="diag">    2.12    2.13</time>
   <time name="diis">   12.86   12.92</time>
   <time name="orth">    0.05    0.05</time>
   <time name="total">   15.94   16.01</time>
   <energy>
    <i name="e_fr_energy">    -27.41259334 </i>
    <i name="e_wo_entrp">    -27.41259334 </i>
    <i name="e_0_energy">    -27.41259334 </i>
   </energy>
  </scstep>
  <scstep>
   <time name="diag">    2.12    2.13</time>
   <time name="diis">   12.54   12.60</time>
   <time name="orth">    0.06    0.06</time>
   <time name="total">   15.63   15.70</time>
   <energy>
    <i name="e_fr_energy">    -27.41259894 </i>
    <i name="e_wo_entrp">    -27.41259894 </i>
    <i name="e_0_energy">    -27.41259894 </i>
   </energy>
  </scstep>
  <scstep>
   <time name="diag">    2.11    2.12</time>
   <time name="diis">   11.82   11.88</time>
   <time name="orth">    0.05    0.05</time>
   <time name="total">   14.89   14.96</time>
   <energy>
    <i name="e_fr_energy">    -27.41260136 </i>
    <i name="e_wo_entrp">    -27.41260136 </i>
    <i name="e_0_energy">    -27.41260136 </i>
   </energy>
  </scstep>
  <scstep>
   <time name="diag">    2.11    2.12</time>
   <time name="diis">   10.94   10.99</time>
   <time name="orth">    0.05    0.05</time>
   <time name="total">   14.00   14.07</time>
   <energy>
    <i name="e_fr_energy">    -27.41260237 </i>
    <i name="e_wo_entrp">    -27.41260237 </i>
    <i name="e_0_energy">    -27.41260237 </i>
   </energy>
  </scstep>
  <scstep>
   <time name="diag">    2.12    2.13</time>
   <time name="diis">   10.29   10.34</time>
   <time name="orth">    0.05    0.05</time>
   <time name="total">   13.36   13.43</time>
   <energy>
    <i name="e_fr_energy">    -27.41260313 </i>
    <i name="e_wo_entrp">    -27.41260313 </i>
    <i name="e_0_energy">    -27.41260313 </i>
   </energy>
  </scstep>
  <scstep>
   <time name="diag">    2.10    2.11</time>
   <time name="diis">    9.32    9.37</time>
   <time name="orth">    0.06    0.06</time>
   <time name="total">   12.40   12.45</time>
   <energy>
    <i name="e_fr_energy">    -27.41260342 </i>
    <i name="e_wo_entrp">    -27.41260342 </i>
    <i name="e_0_energy">    -27.41260342 </i>
   </energy>
  </scstep>
  <scstep>
   <time name="diag">    2.12    2.13</time>
   <time name="diis">    8.95    9.00</time>
   <time name="orth">    0.05    0.05</time>
   <time name="total">   12.05   12.11</time>
   <energy>
    <i name="e_fr_energy">    -27.45752509 </i>
    <i name="e_wo_entrp">    -27.44816177 </i>
    <i name="e_0_energy">    -27.45284343 </i>
   </energy>
  </scstep>
  <scstep>
   <time name="diag">    2.12    2.13</time>
   <time name="diis">    9.84    9.88</time>
   <time name="orth">    0.05    0.05</time>
   <time name="total">   12.94   13.00</time>
   <energy>
    <i name="e_fr_energy">    -27.41266126 </i>
    <i name="e_wo_entrp">    -27.41266126 </i>
    <i name="e_0_energy">    -27.41266126 </i>
   </energy>
  </scstep>
  <scstep>
   <time name="diag">    2.11    2.12</time>
   <time name="diis">    9.78    9.83</time>
   <time name="orth">    0.05    0.05</time>
   <time name="total">   12.85   12.91</time>
   <energy>
    <i name="e_fr_energy">    -27.41260216 </i>
    <i name="e_wo_entrp">    -27.41260216 </i>
    <i name="e_0_energy">    -27.41260216 </i>
   </energy>
  </scstep>
  <scstep>
   <time name="diag">    2.10    2.11</time>
   <time name="diis">    9.04    9.08</time>
   <time name="orth">    0.05    0.05</time>
   <time name="total">   12.10   12.16</time>
   <energy>
    <i name="e_fr_energy">    -27.41260259 </i>
    <i name="e_wo_entrp">    -27.41260259 </i>
    <i name="e_0_energy">    -27.41260259 </i>
   </energy>
  </scstep>
  <scstep>
   <time name="diag">    2.09    2.10</time>
   <time name="diis">    8.45    8.49</time>
   <time name="orth">    0.05    0.05</time>
   <time name="total">   10.82   10.87</time>
   <energy>
    <i name="alphaZ">    169.04784520 </i>
    <i name="ewald">  -3364.19648065 </i>
    <i name="hartreedc">  -2392.38038333 </i>
    <i name="XCdc">    181.05224643 </i>
    <i name="pawpsdc">   5415.17030541 </i>
    <i name="pawaedc">  -5739.01735790 </i>
    <i name="eentropy">     -0.00000000 </i>
    <i name="bandstr">   -590.58983321 </i>
    <i name="atom">   6293.50105541 </i>
    <i name="e_fr_energy">    -27.41260265 </i>
    <i name="e_wo_entrp">    -27.41260265 </i>
    <i name="e_0_energy">    -27.41260265 </i>
   </energy>
  </scstep>
  <structure>
   <crystal>
    <varray name="basis" >
     <v>       1.41755978       0.81842852       5.58911241 </v>
     <v>      -1.41755978       0.81842852       5.58911241 </v>
     <v>       0.00000000      -1.63685703       5.58911241 </v>
    </varray>
    <i name="volume">     38.90596845 </i>
    <varray name="rec_basis" >
     <v>       0.35271881       0.20364230       0.05963976 </v>
     <v>      -0.35271881       0.20364230       0.05963976 </v>
     <v>       0.00000000      -0.40728460       0.05963976 </v>
    </varray>
   </crystal>
   <varray name="positions" >
    <v>       0.00000000       0.00000000      -0.00000000 </v>
    <v>       0.50000000       0.50000000       0.50000000 </v>
    <v>       0.10966238       0.10966238       0.10966238 </v>
    <v>       0.89033762       0.89033762       0.89033762 </v>
   </varray>
  </structure>
  <varray name="forces" >
   <v>       0.00000000       0.00000000       0.00000000 </v>
   <v>       0.00000000       0.00000000      -0.00000000 </v>
   <v>      -0.00000000      -0.00000000      -0.04268086 </v>
   <v>      -0.00000000       0.00000000       0.04268086 </v>
  </varray>
  <varray name="stress" >
   <v>      15.58940005       0.00000000      -0.00000000 </v>
   <v>       0.00000000      15.58939998       0.00000003 </v>
   <v>      -0.00000000       0.00000003      46.71953677 </v>
  </varray>
  <energy>
   <i name="e_fr_energy">    -27.41260265 </i>
   <i name="e_wo_entrp">    -27.41260265 </i>
   <i name="e_0_energy">     -0.00000000 </i>
  </energy>
  <time name="totalsc">  296.29  297.69</time>
 </calculation>
 <calculation>
  <scstep>
   <time name="dav">    9.78    9.83</time>
   <time name="total">   10.69   10.74</time>
   <energy>
    <i name="alphaZ">    167.31984585 </i>
    <i name="ewald">  -3351.87505605 </i>
    <i name="hartreedc">  -2385.64967401 </i>
    <i name="XCdc">    180.35527648 </i>
    <i name="pawpsdc">   5415.16993778 </i>
    <i name="pawaedc">  -5739.01777357 </i>
    <i name="eentropy">     -0.00000000 </i>
    <i name="bandstr">   -607.28525177 </i>
    <i name="atom">   6293.50105541 </i>
    <i name="e_fr_energy">    -27.48163987 </i>
    <i name="e_wo_entrp">    -27.48163987 </i>
    <i name="e_0_energy">    -27.48163987 </i>
   </energy>
  </scstep>
  <scstep>
   <time name="diag">    2.11    2.12</time>
   <time name="diis">   10.81   10.87</time>
   <time name="orth">    0.05    0.05</time>
   <time name="total">   13.90   13.96</time>
   <energy>
    <i name="e_fr_energy">    -27.44012863 </i>
    <i name="e_wo_entrp">    -27.44012863 </i>
    <i name="e_0_energy">    -27.44012863 </i>
   </energy>
  </scstep>
  <scstep>
   <time name="diag">    2.11    2.12</time>
   <time name="diis">   10.40   10.45</time>
   <time name="orth">    0.05    0.05</time>
   <time name="total">   13.46   13.52</time>
   <energy>
    <i name="e_fr_energy">    -27.41742034 </i>
    <i name="e_wo_entrp">    -27.41742034 </i>
    <i name="e_0_energy">    -27.41742034 </i>
   </energy>
  </scstep>
  <scstep>
   <time name="diag">    2.10    2.11</time>
   <time name="diis">   11.88   11.94</time>
   <time name="orth">    0.05    0.05</time>
   <time name="total">   14.93   15.00</time>
   <energy>
    <i name="e_fr_energy">    -27.41595386 </i>
    <i name="e_wo_entrp">    -27.41595386 </i>
    <i name="e_0_energy">    -27.41595386 </i>
   </energy>
  </scstep>
  <scstep>
   <time name="diag">    2.10    2.11</time>
   <time name="diis">   12.42   12.48</time>
   <time name="orth">    0.05    0.05</time>
   <time name="total">   15.48   15.56</time>
   <energy>
    <i name="e_fr_energy">    -27.41678872 </i>
    <i name="e_wo_entrp">    -27.41678872 </i>
    <i name="e_0_energy">    -27.41678872 </i>
   </energy>
  </scstep>
  <scstep>
   <time name="diag">    2.12    2.13</time>
   <time name="diis">   11.44   11.50</time>
   <time name="orth">    0.05    0.05</time>
   <time name="total">   14.53   14.60</time>
   <energy>
    <i name="e_fr_energy">    -27.41690171 </i>
    <i name="e_wo_entrp">    -27.41690171 </i>
    <i name="e_0_energy">    -27.41690171 </i>
   </energy>
  </scstep>
  <scstep>
   <time name="diag">    2.13    2.14</time>
   <time name="diis">   12.46   12.52</time>
   <time name="orth">    0.05    0.05</time>
   <time name="total">   15.54   15.62</time>
   <energy>
    <i name="e_fr_energy">    -27.41704236 </i>
    <i name="e_wo_entrp">    -27.41704236 </i>
    <i name="e_0_energy">    -27.41704236 </i>
   </energy>
  </scstep>
  <scstep>
   <time name="diag">    2.12    2.13</time>
   <time name="diis">   12.73   12.79</time>
   <time name="orth">    0.05    0.05</time>
   <time name="total">   15.81   15.89</time>
   <energy>
    <i name="e_fr_energy">    -27.41708800 </i>
    <i name="e_wo_entrp">    -27.41708800 </i>
    <i name="e_0_energy">    -27.41708800 </i>
   </energy>
  </scstep>
  <scstep>
   <time name="diag">    2.10    2.11</time>
   <time name="diis">   12.55   12.61</time>
   <time name="orth">    0.05    0.05</time>
   <time name="total">   15.62   15.69</time>
   <energy>
    <i name="e_fr_energy">    -27.41711772 </i>
    <i name="e_wo_entrp">    -27.41711772 </i>
    <i name="e_0_energy">    -27.41711772 </i>
   </energy>
  </scstep>
  <scstep>
   <time name="diag">    2.13    2.14</time>
   <time name="diis">   12.48   12.54</time>
   <time name="orth">    0.06    0.06</time>
   <time name="total">   15.60   15.67</time>
   <energy>
    <i name="e_fr_energy">    -27.41712508 </i>
    <i name="e_wo_entrp">    -27.41712508 </i>
    <i name="e_0_energy">    -27.41712508 </i>
   </energy>
  </scstep>
  <scstep>
   <time name="diag">    2.14    2.15</time>
   <time name="diis">   11.40   11.45</time>
   <time name="orth">    0.05    0.05</time>
   <time name="total">   14.50   14.56</time>
   <energy>
    <i name="e_fr_energy">    -27.41712739 </i>
    <i name="e_wo_entrp">    -27.41712739 </i>
    <i name="e_0_energy">    -27.41712739 </i>
   </energy>
  </scstep>
  <scstep>
   <time name="diag">    2.13    2.14</time>
   <time name="diis">   10.98   11.03</time>
   <time name="orth">    0.05    0.05</time>
   <time name="total">   14.07   14.13</time>
   <energy>
    <i name="e_fr_energy">    -27.41713034 </i>
    <i name="e_wo_entrp">    -27.41713034 </i>
    <i name="e_0_energy">    -27.41713034 </i>
   </energy>
  </scstep>
  <scstep>
   <time name="diag">    2.13    2.14</time>
   <time name="diis">   10.55   10.60</time>
   <time name="orth">    0.05    0.05</time>
   <time name="total">   13.64   13.71</time>
   <energy>
    <i name="e_fr_energy">    -27.41713118 </i>
    <i name="e_wo_entrp">    -27.41713118 </i>
    <i name="e_0_energy">    -27.41713118 </i>
   </energy>
  </scstep>
  <scstep>
   <time name="diag">    2.13    2.14</time>
   <time name="diis">    9.50    9.55</time>
   <time name="orth">    0.05    0.05</time>
   <time name="total">   12.59   12.65</time>
   <energy>
    <i name="e_fr_energy">    -27.41713164 </i>
    <i name="e_wo_entrp">    -27.41713164 </i>
    <i name="e_0_energy">    -27.41713164 </i>
   </energy>
  </scstep>
  <scstep>
   <time name="diag">    2.12    2.13</time>
   <time name="diis">    9.02    9.07</time>
   <time name="orth">    0.05    0.05</time>
   <time name="total">   12.11   12.17</time>
   <energy>
    <i name="e_fr_energy">    -27.41713211 </i>
    <i name="e_wo_entrp">    -27.41713211 </i>
    <i name="e_0_energy">    -27.41713211 </i>
   </energy>
  </scstep>
  <scstep>
   <time name="diag">    2.14    2.15</time>
   <time name="diis">    8.48    8.52</time>
   <time name="orth">    0.05    0.05</time>
   <time name="total">   11.57   11.62</time>
   <energy>
    <i name="e_fr_energy">    -27.41713263 </i>
    <i name="e_wo_entrp">    -27.41713263 </i>
    <i name="e_0_energy">    -27.41713263 </i>
   </energy>
  </scstep>
  <scstep>
   <time name="diag">    2.11    2.12</time>
   <time name="diis">    8.51    8.55</time>
   <time name="orth">    0.06    0.06</time>
   <time name="total">   11.59   11.70</time>
   <energy>
    <i name="e_fr_energy">    -27.41713278 </i>
    <i name="e_wo_entrp">    -27.41713278 </i>
    <i name="e_0_energy">    -27.41713278 </i>
   </energy>
  </scstep>
  <scstep>
   <time name="diag">    2.09    2.10</time>
   <time name="diis">    8.41    8.45</time>
   <time name="orth">    0.05    0.05</time>
   <time name="total">   11.47   11.52</time>
   <energy>
    <i name="e_fr_energy">    -27.41713265 </i>
    <i name="e_wo_entrp">    -27.41713265 </i>
    <i name="e_0_energy">    -27.41713265 </i>
   </energy>
  </scstep>
  <scstep>
   <time name="diag">    2.12    2.13</time>
   <time name="diis">    8.25    8.28</time>
   <time name="orth">    0.05    0.05</time>
   <time name="total">   10.64   10.70</time>
   <energy>
    <i name="alphaZ">    167.31984585 </i>
    <i name="ewald">  -3351.87505605 </i>
    <i name="hartreedc">  -2400.17314100 </i>
    <i name="XCdc">    180.93674426 </i>
    <i name="pawpsdc">   5402.30547594 </i>
    <i name="pawaedc">  -5726.09384709 </i>
    <i name="eentropy">     -0.00000000 </i>
    <i name="bandstr">   -593.33820995 </i>
    <i name="atom">   6293.50105541 </i>
    <i name="e_fr_energy">    -27.41713263 </i>
    <i name="e_wo_entrp">    -27.41713263 </i>
    <i name="e_0_energy">    -27.41713263 </i>
   </energy>
  </scstep>
  <structure>
   <crystal>
    <varray name="basis" >
     <v>       1.42048115       0.82011517       5.62363134 </v>
     <v>      -1.42048115       0.82011517       5.62363134 </v>
     <v>      -0.00000000      -1.64023034       5.62363134 </v>
    </varray>
    <i name="volume">     39.30777069 </i>
    <varray name="rec_basis" >
     <v>       0.35199341       0.20322349       0.05927368 </v>
     <v>      -0.35199341       0.20322349       0.05927368 </v>
     <v>       0.00000000      -0.40644698       0.05927368 </v>
    </varray>
   </crystal>
   <varray name="positions" >
    <v>       0.00000000      -0.00000000      -0.00000000 </v>
    <v>       0.50000000       0.50000000       0.50000000 </v>
    <v>       0.10960695       0.10960695       0.10960695 </v>
    <v>       0.89039305       0.89039305       0.89039305 </v>
   </varray>
  </structure>
  <varray name="forces" >
   <v>      -0.00000000      -0.00000000      -0.00000000 </v>
   <v>      -0.00000000      -0.00000000      -0.00000000 </v>
   <v>       0.00000000      -0.00000000      -0.01561654 </v>
   <v>      -0.00000000       0.00000000       0.01561654 </v>
  </varray>
  <varray name="stress" >
   <v>      -1.85284795       0.00000000      -0.00000000 </v>
   <v>       0.00000000      -1.85284794       0.00000000 </v>
   <v>      -0.00000000       0.00000000       2.20432748 </v>
  </varray>
  <energy>
   <i name="e_fr_energy">    -27.41713263 </i>
   <i name="e_wo_entrp">    -27.41713263 </i>
   <i name="e_0_energy">     -0.00000000 </i>
  </energy>
  <time name="totalsc">  261.94  263.22</time>
 </calculation>
 <calculation>
  <scstep>
   <time name="dav">   10.33   10.38</time>
   <time name="total">   11.24   11.30</time>
   <energy>
    <i name="alphaZ">    167.49894049 </i>
    <i name="ewald">  -3352.51396221 </i>
    <i name="hartreedc">  -2401.74516783 </i>
    <i name="XCdc">    181.00930105 </i>
    <i name="pawpsdc">   5402.30384668 </i>
    <i name="pawaedc">  -5726.09186312 </i>
    <i name="eentropy">     -0.00000000 </i>
    <i name="bandstr">   -591.38028421 </i>
    <i name="atom">   6293.50105541 </i>
    <i name="e_fr_energy">    -27.41813374 </i>
    <i name="e_wo_entrp">    -27.41813374 </i>
    <i name="e_0_energy">    -27.41813374 </i>
   </energy>
  </scstep>
  <scstep>
   <time name="diag">    2.11    2.12</time>
   <time name="diis">   10.77   10.82</time>
   <time name="orth">    0.05    0.05</time>
   <time name="total">   13.85   13.91</time>
   <energy>
    <i name="e_fr_energy">    -27.41758635 </i>
    <i name="e_wo_entrp">    -27.41758635 </i>
    <i name="e_0_energy">    -27.41758635 </i>
   </energy>
  </scstep>
  <scstep>
   <time name="diag">    2.10    2.11</time>
   <time name="diis">   10.89   10.94</time>
   <time name="orth">    0.05    0.05</time>
   <time name="total">   13.95   14.01</time>
   <energy>
    <i name="e_fr_energy">    -27.41709001 </i>
    <i name="e_wo_entrp">    -27.41709001 </i>
    <i name="e_0_energy">    -27.41709001 </i>
   </energy>
  </scstep>
  <scstep>
   <time name="diag">    2.10    2.11</time>
   <time name="diis">   12.08   12.14</time>
   <time name="orth">    0.05    0.05</time>
   <time name="total">   15.14   15.21</time>
   <energy>
    <i name="e_fr_energy">    -27.41711889 </i>
    <i name="e_wo_entrp">    -27.41711889 </i>
    <i name="e_0_energy">    -27.41711889 </i>
   </energy>
  </scstep>
  <scstep>
   <time name="diag">    2.13    2.14</time>
   <time name="diis">   12.24   12.30</time>
   <time name="orth">    0.06    0.06</time>
   <time name="total">   15.33   15.40</time>
   <energy>
    <i name="e_fr_energy">    -27.41712591 </i>
    <i name="e_wo_entrp">    -27.41712591 </i>
    <i name="e_0_energy">    -27.41712591 </i>
   </energy>
  </scstep>
  <scstep>
   <time name="diag">    2.12    2.13</time>
   <time name="diis">   11.79   11.85</time>
   <time name="orth">    0.05    0.05</time>
   <time name="total">   14.86   14.93</time>
   <energy>
    <i name="e_fr_energy">    -27.41713613 </i>
    <i name="e_wo_entrp">    -27.41713613 </i>
    <i name="e_0_energy">    -27.41713613 </i>
   </energy>
  </scstep>
  <scstep>
   <time name="diag">    2.11    2.12</time>
   <time name="diis">   12.15   12.20</time>
   <time name="orth">    0.05    0.05</time>
   <time name="total">   15.21   15.28</time>
   <energy>
    <i name="e_fr_energy">    -27.41713872 </i>
    <i name="e_wo_entrp">    -27.41713872 </i>
    <i name="e_0_energy">    -27.41713872 </i>
   </energy>
  </scstep>
  <scstep>
   <time name="diag">    2.12    2.13</time>
   <time name="diis">   11.53   11.59</time>
   <time name="orth">    0.05    0.05</time>
   <time name="total">   14.62   14.69</time>
   <energy>
    <i name="e_fr_energy">    -27.41713931 </i>
    <i name="e_wo_entrp">    -27.41713931 </i>
    <i name="e_0_energy">    -27.41713931 </i>
   </energy>
  </scstep>
  <scstep>
   <time name="diag">    2.14    2.15</time>
   <time name="diis">   10.62   10.67</time>
   <time name="orth">    0.05    0.05</time>
   <time name="total">   13.73   13.79</time>
   <energy>
    <i name="e_fr_energy">    -27.41713963 </i>
    <i name="e_wo_entrp">    -27.41713963 </i>
    <i name="e_0_energy">    -27.41713963 </i>
   </energy>
  </scstep>
  <scstep>
   <time name="diag">    2.15    2.16</time>
   <time name="diis">    9.37    9.41</time>
   <time name="orth">    0.05    0.05</time>
   <time name="total">   12.48   12.54</time>
   <energy>
    <i name="e_fr_energy">    -27.41713977 </i>
    <i name="e_wo_entrp">    -27.41713977 </i>
    <i name="e_0_energy">    -27.41713977 </i>
   </energy>
  </scstep>
  <scstep>
   <time name="diag">    2.14    2.15</time>
   <time name="diis">    9.04    9.08</time>
   <time name="orth">    0.05    0.05</time>
   <time name="total">   11.47   11.52</time>
   <energy>
    <i name="alphaZ">    167.49894049 </i>
    <i name="ewald">  -3352.51396221 </i>
    <i name="hartreedc">  -2399.98909709 </i>
    <i name="XCdc">    180.94364956 </i>
    <i name="pawpsdc">   5402.77883195 </i>
    <i name="pawaedc">  -5726.56550244 </i>
    <i name="eentropy">     -0.00000000 </i>
    <i name="bandstr">   -593.07105550 </i>
    <i name="atom">   6293.50105541 </i>
    <i name="e_fr_energy">    -27.41713982 </i>
    <i name="e_wo_entrp">    -27.41713982 </i>
    <i name="e_0_energy">    -27.41713982 </i>
   </energy>
  </scstep>
  <structure>
   <crystal>
    <varray name="basis" >
     <v>       1.41949267       0.81954448       5.62544490 </v>
     <v>      -1.41949267       0.81954448       5.62544490 </v>
     <v>      -0.00000000      -1.63908894       5.62544490 </v>
    </varray>
    <i name="volume">     39.26574170 </i>
    <varray name="rec_basis" >
     <v>       0.35223852       0.20336501       0.05925457 </v>
     <v>      -0.35223852       0.20336501       0.05925457 </v>
     <v>       0.00000000      -0.40673001       0.05925457 </v>
    </varray>
   </crystal>
   <varray name="positions" >
    <v>      -0.00000000      -0.00000000      -0.00000000 </v>
    <v>       0.50000000       0.50000000       0.50000000 </v>
    <v>       0.10956340       0.10956340       0.10956340 </v>
    <v>       0.89043660       0.89043660       0.89043660 </v>
   </varray>
  </structure>
  <varray name="forces" >
   <v>      -0.00000000       0.00000000      -0.00000000 </v>
   <v>      -0.00000000       0.00000000      -0.00000000 </v>
   <v>       0.00000000      -0.00000000      -0.00027283 </v>
   <v>      -0.00000000       0.00000000       0.00027283 </v>
  </varray>
  <varray name="stress" >
   <v>       1.89594247       0.00000000       0.00000000 </v>
   <v>       0.00000000       1.89594246       0.00000000 </v>
   <v>       0.00000000       0.00000000       3.52181759 </v>
  </varray>
  <energy>
   <i name="e_fr_energy">    -27.41713982 </i>
   <i name="e_wo_entrp">    -27.41713982 </i>
   <i name="e_0_energy">     -0.00000000 </i>
  </energy>
  <time name="totalsc">  156.08  156.81</time>
 </calculation>
 <calculation>
  <scstep>
   <time name="dav">   10.29   10.34</time>
   <time name="total">   11.19   11.25</time>
   <energy>
    <i name="alphaZ">    167.33993285 </i>
    <i name="ewald">  -3351.45544651 </i>
    <i name="hartreedc">  -2399.24909262 </i>
    <i name="XCdc">    180.87916391 </i>
    <i name="pawpsdc">   5402.77845486 </i>
    <i name="pawaedc">  -5726.56491142 </i>
    <i name="eentropy">     -0.00000000 </i>
    <i name="bandstr">   -594.64708798 </i>
    <i name="atom">   6293.50105541 </i>
    <i name="e_fr_energy">    -27.41793151 </i>
    <i name="e_wo_entrp">    -27.41793151 </i>
    <i name="e_0_energy">    -27.41793151 </i>
   </energy>
  </scstep>
  <scstep>
   <time name="diag">    2.14    2.15</time>
   <time name="diis">   10.33   10.38</time>
   <time name="orth">    0.05    0.05</time>
   <time name="total">   13.43   13.49</time>
   <energy>
    <i name="e_fr_energy">    -27.41752969 </i>
    <i name="e_wo_entrp">    -27.41752969 </i>
    <i name="e_0_energy">    -27.41752969 </i>
   </energy>
  </scstep>
  <scstep>
   <time name="diag">    2.14    2.15</time>
   <time name="diis">   10.32   10.37</time>
   <time name="orth">    0.05    0.05</time>
   <time name="total">   13.42   13.48</time>
   <energy>
    <i name="e_fr_energy">    -27.41719920 </i>
    <i name="e_wo_entrp">    -27.41719920 </i>
    <i name="e_0_energy">    -27.41719920 </i>
   </energy>
  </scstep>
  <scstep>
   <time name="diag">    2.14    2.15</time>
   <time name="diis">   11.52   11.57</time>
   <time name="orth">    0.05    0.05</time>
   <time name="total">   14.61   14.68</time>
   <energy>
    <i name="e_fr_energy">    -27.41717765 </i>
    <i name="e_wo_entrp">    -27.41717765 </i>
    <i name="e_0_energy">    -27.41717765 </i>
   </energy>
  </scstep>
  <scstep>
   <time name="diag">    2.13    2.14</time>
   <time name="diis">   11.90   11.96</time>
   <time name="orth">    0.05    0.05</time>
   <time name="total">   14.99   15.06</time>
   <energy>
    <i name="e_fr_energy">    -27.41718206 </i>
    <i name="e_wo_entrp">    -27.41718206 </i>
    <i name="e_0_energy">    -27.41718206 </i>
   </energy>
  </scstep>
  <scstep>
   <time name="diag">    2.15    2.16</time>
   <time name="diis">   11.26   11.31</time>
   <time name="orth">    0.05    0.05</time>
   <time name="total">   14.36   14.43</time>
   <energy>
    <i name="e_fr_energy">    -27.41718153 </i>
    <i name="e_wo_entrp">    -27.41718153 </i>
    <i name="e_0_energy">    -27.41718153 </i>
   </energy>
  </scstep>
  <scstep>
   <time name="diag">    2.14    2.15</time>
   <time name="diis">   11.53   11.59</time>
   <time name="orth">    0.05    0.05</time>
   <time name="total">   14.64   14.71</time>
   <energy>
    <i name="e_fr_energy">    -27.41718249 </i>
    <i name="e_wo_entrp">    -27.41718249 </i>
    <i name="e_0_energy">    -27.41718249 </i>
   </energy>
  </scstep>
  <scstep>
   <time name="diag">    2.14    2.15</time>
   <time name="diis">   10.77   10.82</time>
   <time name="orth">    0.05    0.05</time>
   <time name="total">   13.87   13.93</time>
   <energy>
    <i name="e_fr_energy">    -27.41718269 </i>
    <i name="e_wo_entrp">    -27.41718269 </i>
    <i name="e_0_energy">    -27.41718269 </i>
   </energy>
  </scstep>
  <scstep>
   <time name="diag">    2.13    2.14</time>
   <time name="diis">    9.57    9.62</time>
   <time name="orth">    0.05    0.05</time>
   <time name="total">   12.65   12.71</time>
   <energy>
    <i name="e_fr_energy">    -27.41718277 </i>
    <i name="e_wo_entrp">    -27.41718277 </i>
    <i name="e_0_energy">    -27.41718277 </i>
   </energy>
  </scstep>
  <scstep>
   <time name="diag">    2.13    2.14</time>
   <time name="diis">    8.99    9.03</time>
   <time name="orth">    0.05    0.05</time>
   <time name="total">   11.40   11.46</time>
   <energy>
    <i name="alphaZ">    167.33993285 </i>
    <i name="ewald">  -3351.45544651 </i>
    <i name="hartreedc">  -2400.63277388 </i>
    <i name="XCdc">    180.93379299 </i>
    <i name="pawpsdc">   5401.74896253 </i>
    <i name="pawaedc">  -5725.53196655 </i>
    <i name="eentropy">     -0.00000000 </i>
    <i name="bandstr">   -593.32073958 </i>
    <i name="atom">   6293.50105541 </i>
    <i name="e_fr_energy">    -27.41718272 </i>
    <i name="e_wo_entrp">    -27.41718272 </i>
    <i name="e_0_energy">    -27.41718272 </i>
   </energy>
  </scstep>
  <structure>
   <crystal>
    <varray name="basis" >
     <v>       1.41987100       0.81976291       5.62778992 </v>
     <v>      -1.41987100       0.81976291       5.62778992 </v>
     <v>      -0.00000000      -1.63952580       5.62778992 </v>
    </varray>
    <i name="volume">     39.30305230 </i>
    <varray name="rec_basis" >
     <v>       0.35214467       0.20331082       0.05922988 </v>
     <v>      -0.35214467       0.20331082       0.05922988 </v>
     <v>      -0.00000000      -0.40662164       0.05922988 </v>
    </varray>
   </crystal>
   <varray name="positions" >
    <v>      -0.00000000      -0.00000000      -0.00000000 </v>
    <v>       0.50000000       0.50000000       0.50000000 </v>
    <v>       0.10956429       0.10956429       0.10956429 </v>
    <v>       0.89043571       0.89043571       0.89043571 </v>
   </varray>
  </structure>
  <varray name="forces" >
   <v>      -0.00000000      -0.00000000      -0.00000000 </v>
   <v>      -0.00000000      -0.00000000      -0.00000000 </v>
   <v>       0.00000000      -0.00000000      -0.00132868 </v>
   <v>      -0.00000000       0.00000000       0.00132868 </v>
  </varray>
  <varray name="stress" >
   <v>       0.22028544       0.00000000       0.00000000 </v>
   <v>       0.00000000       0.22028544       0.00000000 </v>
   <v>       0.00000000       0.00000000       0.25775439 </v>
  </varray>
  <energy>
   <i name="e_fr_energy">    -27.41718272 </i>
   <i name="e_wo_entrp">    -27.41718272 </i>
   <i name="e_0_energy">     -0.00000000 </i>
  </energy>
  <time name="totalsc">  138.73  139.38</time>
 </calculation>
 <calculation>
  <scstep>
   <time name="dav">   10.87   10.92</time>
   <time name="total">   11.78   11.83</time>
   <energy>
    <i name="alphaZ">    167.32095877 </i>
    <i name="ewald">  -3351.28361741 </i>
    <i name="hartreedc">  -2400.58390159 </i>
    <i name="XCdc">    180.92605943 </i>
    <i name="pawpsdc">   5401.74952200 </i>
    <i name="pawaedc">  -5725.53237492 </i>
    <i name="eentropy">     -0.00000000 </i>
    <i name="bandstr">   -593.51489734 </i>
    <i name="atom">   6293.50105541 </i>
    <i name="e_fr_energy">    -27.41719566 </i>
    <i name="e_wo_entrp">    -27.41719566 </i>
    <i name="e_0_energy">    -27.41719566 </i>
   </energy>
  </scstep>
  <scstep>
   <time name="diag">    2.12    2.13</time>
   <time name="diis">   10.43   10.48</time>
   <time name="orth">    0.05    0.05</time>
   <time name="total">   13.51   13.57</time>
   <energy>
    <i name="e_fr_energy">    -27.41718949 </i>
    <i name="e_wo_entrp">    -27.41718949 </i>
    <i name="e_0_energy">    -27.41718949 </i>
   </energy>
  </scstep>
  <scstep>
   <time name="diag">    2.14    2.15</time>
   <time name="diis">   10.51   10.56</time>
   <time name="orth">    0.06    0.06</time>
   <time name="total">   13.61   13.67</time>
   <energy>
    <i name="e_fr_energy">    -27.41718446 </i>
    <i name="e_wo_entrp">    -27.41718446 </i>
    <i name="e_0_energy">    -27.41718446 </i>
   </energy>
  </scstep>
  <scstep>
   <time name="diag">    2.13    2.14</time>
   <time name="diis">   11.19   11.24</time>
   <time name="orth">    0.05    0.05</time>
   <time name="total">   14.27   14.34</time>
   <energy>
    <i name="e_fr_energy">    -27.41718440 </i>
    <i name="e_wo_entrp">    -27.41718440 </i>
    <i name="e_0_energy">    -27.41718440 </i>
   </energy>
  </scstep>
  <scstep>
   <time name="diag">    2.13    2.14</time>
   <time name="diis">    9.83    9.87</time>
   <time name="orth">    0.05    0.05</time>
   <time name="total">   12.90   12.96</time>
   <energy>
    <i name="e_fr_energy">    -27.41718447 </i>
    <i name="e_wo_entrp">    -27.41718447 </i>
    <i name="e_0_energy">    -27.41718447 </i>
   </energy>
  </scstep>
  <scstep>
   <time name="diag">    2.13    2.14</time>
   <time name="diis">    9.15    9.19</time>
   <time name="orth">    0.05    0.05</time>
   <time name="total">   11.56   11.61</time>
   <energy>
    <i name="alphaZ">    167.32095877 </i>
    <i name="ewald">  -3351.28361741 </i>
    <i name="hartreedc">  -2400.75964948 </i>
    <i name="XCdc">    180.93269838 </i>
    <i name="pawpsdc">   5401.68640990 </i>
    <i name="pawaedc">  -5725.46969939 </i>
    <i name="eentropy">     -0.00000000 </i>
    <i name="bandstr">   -593.34534067 </i>
    <i name="atom">   6293.50105541 </i>
    <i name="e_fr_energy">    -27.41718449 </i>
    <i name="e_wo_entrp">    -27.41718449 </i>
    <i name="e_0_energy">    -27.41718449 </i>
   </energy>
  </scstep>
  <structure>
   <crystal>
    <varray name="basis" >
     <v>       1.41993239       0.81979835       5.62794147 </v>
     <v>      -1.41993239       0.81979835       5.62794147 </v>
     <v>      -0.00000000      -1.63959669       5.62794147 </v>
    </varray>
    <i name="volume">     39.30750924 </i>
    <varray name="rec_basis" >
     <v>       0.35212944       0.20330203       0.05922829 </v>
     <v>      -0.35212944       0.20330203       0.05922829 </v>
     <v>      -0.00000000      -0.40660406       0.05922829 </v>
    </varray>
   </crystal>
   <varray name="positions" >
    <v>      -0.00000000      -0.00000000      -0.00000000 </v>
    <v>       0.50000000       0.50000000       0.50000000 </v>
    <v>       0.10956033       0.10956033       0.10956033 </v>
    <v>       0.89043967       0.89043967       0.89043967 </v>
   </varray>
  </structure>
  <varray name="forces" >
   <v>      -0.00000000       0.00000000      -0.00000000 </v>
   <v>      -0.00000000       0.00000000      -0.00000000 </v>
   <v>       0.00000000       0.00000000       0.00402257 </v>
   <v>       0.00000000      -0.00000000      -0.00402257 </v>
  </varray>
  <varray name="stress" >
   <v>      -0.51483700      -0.00000000       0.00000000 </v>
   <v>       0.00000000      -0.51483699      -0.00000000 </v>
   <v>       0.00000000      -0.00000000      -0.27346105 </v>
  </varray>
  <energy>
   <i name="e_fr_energy">    -27.41718449 </i>
   <i name="e_wo_entrp">    -27.41718449 </i>
   <i name="e_0_energy">     -0.00000000 </i>
  </energy>
  <time name="totalsc">   81.77   82.15</time>
 </calculation>
 <calculation>
  <scstep>
   <time name="dav">   10.84   10.90</time>
   <time name="total">   11.74   11.79</time>
   <energy>
    <i name="alphaZ">    167.34136262 </i>
    <i name="ewald">  -3351.47843629 </i>
    <i name="hartreedc">  -2400.80264594 </i>
    <i name="XCdc">    180.94087438 </i>
    <i name="pawpsdc">   5401.68799021 </i>
    <i name="pawaedc">  -5725.47104535 </i>
    <i name="eentropy">     -0.00000000 </i>
    <i name="bandstr">   -593.13635111 </i>
    <i name="atom">   6293.50105541 </i>
    <i name="e_fr_energy">    -27.41719607 </i>
    <i name="e_wo_entrp">    -27.41719607 </i>
    <i name="e_0_energy">    -27.41719607 </i>
   </energy>
  </scstep>
  <scstep>
   <time name="diag">    2.14    2.15</time>
   <time name="diis">   10.32   10.37</time>
   <time name="orth">    0.05    0.05</time>
   <time name="total">   13.44   13.50</time>
   <energy>
    <i name="e_fr_energy">    -27.41718949 </i>
    <i name="e_wo_entrp">    -27.41718949 </i>
    <i name="e_0_energy">    -27.41718949 </i>
   </energy>
  </scstep>
  <scstep>
   <time name="diag">    2.15    2.16</time>
   <time name="diis">   10.57   10.61</time>
   <time name="orth">    0.05    0.05</time>
   <time name="total">   13.70   13.77</time>
   <energy>
    <i name="e_fr_energy">    -27.41718250 </i>
    <i name="e_wo_entrp">    -27.41718250 </i>
    <i name="e_0_energy">    -27.41718250 </i>
   </energy>
  </scstep>
  <scstep>
   <time name="diag">    2.16    2.17</time>
   <time name="diis">   11.25   11.30</time>
   <time name="orth">    0.06    0.06</time>
   <time name="total">   14.36   14.43</time>
   <energy>
    <i name="e_fr_energy">    -27.41718251 </i>
    <i name="e_wo_entrp">    -27.41718251 </i>
    <i name="e_0_energy">    -27.41718251 </i>
   </energy>
  </scstep>
  <scstep>
   <time name="diag">    2.13    2.14</time>
   <time name="diis">   10.34   10.39</time>
   <time name="orth">    0.05    0.05</time>
   <time name="total">   13.43   13.49</time>
   <energy>
    <i name="e_fr_energy">    -27.41718246 </i>
    <i name="e_wo_entrp">    -27.41718246 </i>
    <i name="e_0_energy">    -27.41718246 </i>
   </energy>
  </scstep>
  <scstep>
   <time name="diag">    2.13    2.14</time>
   <time name="diis">    9.33    9.37</time>
   <time name="orth">    0.05    0.05</time>
   <time name="total">   11.74   11.80</time>
   <energy>
    <i name="alphaZ">    167.34136262 </i>
    <i name="ewald">  -3351.47843629 </i>
    <i name="hartreedc">  -2400.60697439 </i>
    <i name="XCdc">    180.93363190 </i>
    <i name="pawpsdc">   5401.72174299 </i>
    <i name="pawaedc">  -5725.50471927 </i>
    <i name="eentropy">     -0.00000000 </i>
    <i name="bandstr">   -593.32484549 </i>
    <i name="atom">   6293.50105541 </i>
    <i name="e_fr_energy">    -27.41718251 </i>
    <i name="e_wo_entrp">    -27.41718251 </i>
    <i name="e_0_energy">    -27.41718251 </i>
   </energy>
  </scstep>
  <structure>
   <crystal>
    <varray name="basis" >
     <v>       1.41985235       0.81975214       5.62788973 </v>
     <v>      -1.41985235       0.81975214       5.62788973 </v>
     <v>      -0.00000000      -1.63950426       5.62788973 </v>
    </varray>
    <i name="volume">     39.30271649 </i>
    <varray name="rec_basis" >
     <v>       0.35214929       0.20331349       0.05922883 </v>
     <v>      -0.35214929       0.20331349       0.05922883 </v>
     <v>       0.00000000      -0.40662698       0.05922883 </v>
    </varray>
   </crystal>
   <varray name="positions" >
    <v>      -0.00000000      -0.00000000      -0.00000000 </v>
    <v>       0.50000000       0.50000000       0.50000000 </v>
    <v>       0.10956559       0.10956559       0.10956559 </v>
    <v>       0.89043441       0.89043441       0.89043441 </v>
   </varray>
  </structure>
  <varray name="forces" >
   <v>      -0.00000000      -0.00000000       0.00000000 </v>
   <v>      -0.00000000      -0.00000000       0.00000000 </v>
   <v>       0.00000000      -0.00000000      -0.00499277 </v>
   <v>      -0.00000000       0.00000000       0.00499277 </v>
  </varray>
  <varray name="stress" >
   <v>       1.89285149       0.00000000      -0.00000000 </v>
   <v>      -0.00000000       1.89285148       0.00000000 </v>
   <v>      -0.00000000       0.00000000       1.74716548 </v>
  </varray>
  <energy>
   <i name="e_fr_energy">    -27.41718251 </i>
   <i name="e_wo_entrp">    -27.41718251 </i>
   <i name="e_0_energy">     -0.00000000 </i>
  </energy>
  <time name="totalsc">   82.59   82.97</time>
 </calculation>
 <calculation>
  <scstep>
   <time name="dav">   11.75   11.81</time>
   <time name="total">   12.67   12.73</time>
   <energy>
    <i name="alphaZ">    167.33879724 </i>
    <i name="ewald">  -3351.49807524 </i>
    <i name="hartreedc">  -2400.56276785 </i>
    <i name="XCdc">    180.93268625 </i>
    <i name="pawpsdc">   5401.72252607 </i>
    <i name="pawaedc">  -5725.50586942 </i>
    <i name="eentropy">     -0.00000000 </i>
    <i name="bandstr">   -593.34553503 </i>
    <i name="atom">   6293.50105541 </i>
    <i name="e_fr_energy">    -27.41718255 </i>
    <i name="e_wo_entrp">    -27.41718255 </i>
    <i name="e_0_energy">    -27.41718255 </i>
   </energy>
  </scstep>
  <scstep>
   <time name="diag">    2.14    2.15</time>
   <time name="diis">    9.80    9.84</time>
   <time name="orth">    0.06    0.06</time>
[...]
       <r>   32.6255    0.0000 </r>
       <r>   33.2814    0.0000 </r>
       <r>   34.5589    0.0000 </r>
      </set>
      <set comment="kpoint 103">
       <r> -105.4659    1.0000 </r>
       <r>  -63.1600    1.0000 </r>
       <r>  -62.9518    1.0000 </r>
       <r>  -62.9501    1.0000 </r>
       <r>  -15.0585    1.0000 </r>
       <r>  -13.2002    1.0000 </r>
       <r>   -1.5613    1.0000 </r>
       <r>    0.3437    1.0000 </r>
       <r>    1.8548    1.0000 </r>
       <r>    2.0666    1.0000 </r>
       <r>    2.1638    1.0000 </r>
       <r>    2.6580    1.0000 </r>
       <r>    2.7136    1.0000 </r>
       <r>    3.9900    1.0000 </r>
       <r>    4.1037    1.0000 </r>
       <r>    4.8728    1.0000 </r>
       <r>    5.0303    1.0000 </r>
       <r>    9.0595    0.0000 </r>
       <r>   11.2647    0.0000 </r>
       <r>   13.4849    0.0000 </r>
       <r>   17.8714    0.0000 </r>
       <r>   18.8717    0.0000 </r>
       <r>   19.9452    0.0000 </r>
       <r>   19.9651    0.0000 </r>
       <r>   21.2846    0.0000 </r>
       <r>   22.1358    0.0000 </r>
       <r>   23.5797    0.0000 </r>
       <r>   23.3628    0.0000 </r>
       <r>   24.9297    0.0000 </r>
       <r>   27.3278    0.0000 </r>
       <r>   28.7051    0.0000 </r>
       <r>   29.2375    0.0000 </r>
       <r>   30.1060    0.0000 </r>
       <r>   30.3847    0.0000 </r>
       <r>   31.3173    0.0000 </r>
       <r>   32.7377    0.0000 </r>
      </set>
      <set comment="kpoint 104">
       <r> -105.4656    1.0000 </r>
       <r>  -63.1598    1.0000 </r>
       <r>  -62.9552    1.0000 </r>
       <r>  -62.9512    1.0000 </r>
       <r>  -14.8158    1.0000 </r>
       <r>  -13.1182    1.0000 </r>
       <r>   -1.2904    1.0000 </r>
       <r>   -0.0963    1.0000 </r>
       <r>    1.3352    1.0000 </r>
       <r>    1.6926    1.0000 </r>
       <r>    2.1382    1.0000 </r>
       <r>    2.4557    1.0000 </r>
       <r>    2.8330    1.0000 </r>
       <r>    3.9159    1.0000 </r>
       <r>    4.2586    1.0000 </r>
       <r>    4.7709    1.0000 </r>
       <r>    4.9748    1.0000 </r>
       <r>    9.0946    0.0000 </r>
       <r>   11.9728    0.0000 </r>
       <r>   14.3128    0.0000 </r>
       <r>   17.2832    0.0000 </r>
       <r>   18.2695    0.0000 </r>
       <r>   18.9671    0.0000 </r>
       <r>   20.3487    0.0000 </r>
       <r>   20.7192    0.0000 </r>
       <r>   21.6012    0.0000 </r>
       <r>   22.5543    0.0000 </r>
       <r>   23.0048    0.0000 </r>
       <r>   26.2706    0.0000 </r>
       <r>   28.3563    0.0000 </r>
       <r>   28.7523    0.0000 </r>
       <r>   30.1261    0.0000 </r>
       <r>   30.7743    0.0000 </r>
       <r>   31.4817    0.0000 </r>
       <r>   32.2980    0.0000 </r>
       <r>   32.8037    0.0000 </r>
      </set>
      <set comment="kpoint 105">
       <r> -105.4650    1.0000 </r>
       <r>  -63.1591    1.0000 </r>
       <r>  -62.9608    1.0000 </r>
       <r>  -62.9532    1.0000 </r>
       <r>  -14.3838    1.0000 </r>
       <r>  -12.9864    1.0000 </r>
       <r>   -1.0731    1.0000 </r>
       <r>   -0.8107    1.0000 </r>
       <r>    0.6155    1.0000 </r>
       <r>    1.3754    1.0000 </r>
       <r>    1.7245    1.0000 </r>
       <r>    2.3329    1.0000 </r>
       <r>    3.2677    1.0000 </r>
       <r>    3.9068    1.0000 </r>
       <r>    4.5670    1.0000 </r>
       <r>    4.6280    1.0000 </r>
       <r>    4.8829    1.0000 </r>
       <r>    8.8689    0.0000 </r>
       <r>   13.1876    0.0000 </r>
       <r>   15.4112    0.0000 </r>
       <r>   16.3725    0.0000 </r>
       <r>   17.4309    0.0000 </r>
       <r>   17.9733    0.0000 </r>
       <r>   19.0147    0.0000 </r>
       <r>   19.9532    0.0000 </r>
       <r>   20.9434    0.0000 </r>
       <r>   22.6768    0.0000 </r>
       <r>   23.8854    0.0000 </r>
       <r>   26.0979    0.0000 </r>
       <r>   27.3621    0.0000 </r>
       <r>   28.4226    0.0000 </r>
       <r>   29.8053    0.0000 </r>
       <r>   31.5905    0.0000 </r>
       <r>   32.7599    0.0000 </r>
       <r>   32.7927    0.0000 </r>
       <r>   33.8519    0.0000 </r>
      </set>
      <set comment="kpoint 106">
       <r> -105.4644    1.0000 </r>
       <r>  -63.1585    1.0000 </r>
       <r>  -62.9666    1.0000 </r>
       <r>  -62.9551    1.0000 </r>
       <r>  -13.8586    1.0000 </r>
       <r>  -12.8970    1.0000 </r>
       <r>   -1.6648    1.0000 </r>
       <r>   -1.1995    1.0000 </r>
       <r>    0.4946    1.0000 </r>
       <r>    1.0034    1.0000 </r>
       <r>    1.4258    1.0000 </r>
       <r>    2.1523    1.0000 </r>
       <r>    3.3708    1.0000 </r>
       <r>    4.3520    1.0000 </r>
       <r>    4.4601    1.0000 </r>
       <r>    4.8221    1.0000 </r>
       <r>    5.1284    1.0000 </r>
       <r>    8.5815    0.0000 </r>
       <r>   14.0296    0.0000 </r>
       <r>   14.5787    0.0000 </r>
       <r>   15.9014    0.0000 </r>
       <r>   17.2198    0.0000 </r>
       <r>   17.5652    0.0000 </r>
       <r>   18.6234    0.0000 </r>
       <r>   18.9388    0.0000 </r>
       <r>   21.0862    0.0000 </r>
       <r>   23.2809    0.0000 </r>
       <r>   24.9331    0.0000 </r>
       <r>   26.3482    0.0000 </r>
       <r>   27.3832    0.0000 </r>
       <r>   28.1416    0.0000 </r>
       <r>   29.9661    0.0000 </r>
       <r>   31.5289    0.0000 </r>
       <r>   33.3824    0.0000 </r>
       <r>   33.4707    0.0000 </r>
       <r>   35.0987    0.0000 </r>
      </set>
      <set comment="kpoint 107">
       <r> -105.4654    1.0000 </r>
       <r>  -63.1597    1.0000 </r>
       <r>  -62.9570    1.0000 </r>
       <r>  -62.9516    1.0000 </r>
       <r>  -14.6976    1.0000 </r>
       <r>  -13.0878    1.0000 </r>
       <r>   -1.1375    1.0000 </r>
       <r>   -0.3588    1.0000 </r>
       <r>    1.0896    1.0000 </r>
       <r>    1.6738    1.0000 </r>
       <r>    1.8844    1.0000 </r>
       <r>    2.5182    1.0000 </r>
       <r>    2.9053    1.0000 </r>
       <r>    3.9574    1.0000 </r>
       <r>    4.2941    1.0000 </r>
       <r>    4.6909    1.0000 </r>
       <r>    5.0057    1.0000 </r>
       <r>    9.1068    0.0000 </r>
       <r>   12.2025    0.0000 </r>
       <r>   14.5018    0.0000 </r>
       <r>   17.0553    0.0000 </r>
       <r>   18.0979    0.0000 </r>
       <r>   18.6662    0.0000 </r>
       <r>   20.2581    0.0000 </r>
       <r>   20.5005    0.0000 </r>
       <r>   21.5163    0.0000 </r>
       <r>   23.2021    0.0000 </r>
       <r>   22.5200    0.0000 </r>
       <r>   25.0915    0.0000 </r>
       <r>   26.1431    0.0000 </r>
       <r>   29.4359    0.0000 </r>
       <r>   30.6703    0.0000 </r>
       <r>   31.3333    0.0000 </r>
       <r>   32.6184    0.0000 </r>
       <r>   33.1694    0.0000 </r>
       <r>   33.2667    0.0000 </r>
      </set>
      <set comment="kpoint 108">
       <r> -105.4650    1.0000 </r>
       <r>  -63.1593    1.0000 </r>
       <r>  -62.9608    1.0000 </r>
       <r>  -62.9533    1.0000 </r>
       <r>  -14.3793    1.0000 </r>
       <r>  -12.9933    1.0000 </r>
       <r>   -1.0501    1.0000 </r>
       <r>   -0.7690    1.0000 </r>
       <r>    0.5438    1.0000 </r>
       <r>    1.3824    1.0000 </r>
       <r>    1.7789    1.0000 </r>
       <r>    2.2433    1.0000 </r>
       <r>    3.2710    1.0000 </r>
       <r>    3.9137    1.0000 </r>
       <r>    4.5659    1.0000 </r>
       <r>    4.5997    1.0000 </r>
       <r>    4.9232    1.0000 </r>
       <r>    8.9261    0.0000 </r>
       <r>   13.1269    0.0000 </r>
       <r>   15.2635    0.0000 </r>
       <r>   16.4618    0.0000 </r>
       <r>   17.6106    0.0000 </r>
       <r>   18.0607    0.0000 </r>
       <r>   18.8485    0.0000 </r>
       <r>   19.9212    0.0000 </r>
       <r>   21.0017    0.0000 </r>
       <r>   23.0421    0.0000 </r>
       <r>   23.9647    0.0000 </r>
       <r>   25.4116    0.0000 </r>
       <r>   27.5042    0.0000 </r>
       <r>   28.9352    0.0000 </r>
       <r>   30.2152    0.0000 </r>
       <r>   31.5453    0.0000 </r>
       <r>   32.5155    0.0000 </r>
       <r>   32.9395    0.0000 </r>
       <r>   33.7621    0.0000 </r>
      </set>
      <set comment="kpoint 109">
       <r> -105.4645    1.0000 </r>
       <r>  -63.1585    1.0000 </r>
       <r>  -62.9649    1.0000 </r>
       <r>  -62.9561    1.0000 </r>
       <r>  -13.9272    1.0000 </r>
       <r>  -12.8992    1.0000 </r>
       <r>   -1.2192    1.0000 </r>
       <r>   -1.2104    1.0000 </r>
       <r>    0.1198    1.0000 </r>
       <r>    1.1743    1.0000 </r>
       <r>    1.6060    1.0000 </r>
       <r>    1.7402    1.0000 </r>
       <r>    3.7609    1.0000 </r>
       <r>    3.8353    1.0000 </r>
       <r>    4.4900    1.0000 </r>
       <r>    4.7965    1.0000 </r>
       <r>    5.1145    1.0000 </r>
       <r>    8.7869    0.0000 </r>
       <r>   14.3150    0.0000 </r>
       <r>   15.3669    0.0000 </r>
       <r>   16.5617    0.0000 </r>
       <r>   16.7082    0.0000 </r>
       <r>   17.4716    0.0000 </r>
       <r>   18.0146    0.0000 </r>
       <r>   18.3384    0.0000 </r>
       <r>   20.8642    0.0000 </r>
       <r>   23.3222    0.0000 </r>
       <r>   24.3737    0.0000 </r>
       <r>   25.6937    0.0000 </r>
       <r>   28.5459    0.0000 </r>
       <r>   29.3131    0.0000 </r>
       <r>   29.6488    0.0000 </r>
       <r>   31.4281    0.0000 </r>
       <r>   32.6989    0.0000 </r>
       <r>   33.6043    0.0000 </r>
       <r>   34.0624    0.0000 </r>
      </set>
      <set comment="kpoint 110">
       <r> -105.4648    1.0000 </r>
       <r>  -63.1591    1.0000 </r>
       <r>  -62.9640    1.0000 </r>
       <r>  -62.9534    1.0000 </r>
       <r>  -14.1898    1.0000 </r>
       <r>  -12.9531    1.0000 </r>
       <r>   -1.3381    1.0000 </r>
       <r>   -0.9785    1.0000 </r>
       <r>    0.6605    1.0000 </r>
       <r>    1.2132    1.0000 </r>
       <r>    1.5166    1.0000 </r>
       <r>    2.4404    1.0000 </r>
       <r>    3.1936    1.0000 </r>
       <r>    4.3662    1.0000 </r>
       <r>    4.5325    1.0000 </r>
       <r>    4.5383    1.0000 </r>
       <r>    4.9229    1.0000 </r>
       <r>    8.7248    0.0000 </r>
       <r>   13.3643    0.0000 </r>
       <r>   14.8127    0.0000 </r>
       <r>   16.2402    0.0000 </r>
       <r>   17.3544    0.0000 </r>
       <r>   17.8139    0.0000 </r>
       <r>   18.6636    0.0000 </r>
       <r>   20.2589    0.0000 </r>
       <r>   21.4580    0.0000 </r>
       <r>   23.1880    0.0000 </r>
       <r>   24.5710    0.0000 </r>
       <r>   25.4854    0.0000 </r>
       <r>   26.1941    0.0000 </r>
       <r>   29.1560    0.0000 </r>
       <r>   29.5897    0.0000 </r>
       <r>   31.7535    0.0000 </r>
       <r>   32.4733    0.0000 </r>
       <r>   33.5246    0.0000 </r>
       <r>   34.6349    0.0000 </r>
      </set>
      <set comment="kpoint 111">
       <r> -105.4662    1.0000 </r>
       <r>  -63.1603    1.0000 </r>
       <r>  -62.9499    1.0000 </r>
       <r>  -62.9499    1.0000 </r>
       <r>  -15.1734    1.0000 </r>
       <r>  -13.2684    1.0000 </r>
       <r>   -1.5244    1.0000 </r>
       <r>    0.3245    1.0000 </r>
       <r>    2.0822    1.0000 </r>
       <r>    2.2552    1.0000 </r>
       <r>    2.2552    1.0000 </r>
       <r>    2.7449    1.0000 </r>
       <r>    2.7449    1.0000 </r>
       <r>    4.0307    1.0000 </r>
       <r>    4.0307    1.0000 </r>
       <r>    5.0266    1.0000 </r>
       <r>    5.0266    1.0000 </r>
       <r>    9.1531    0.0000 </r>
       <r>   10.6880    0.0000 </r>
       <r>   13.0373    0.0000 </r>
       <r>   18.0836    0.0000 </r>
       <r>   19.7090    0.0000 </r>
       <r>   19.7090    0.0000 </r>
       <r>   20.9303    0.0000 </r>
       <r>   20.9303    0.0000 </r>
       <r>   21.5256    0.0000 </r>
       <r>   25.1160    0.0000 </r>
       <r>   25.0414    0.0000 </r>
       <r>   25.1966    0.0000 </r>
       <r>   27.6835    0.0000 </r>
       <r>   28.3428    0.0000 </r>
       <r>   29.1168    0.0000 </r>
       <r>   29.0089    0.0000 </r>
       <r>   29.8696    0.0000 </r>
       <r>   30.8695    0.0000 </r>
       <r>   32.2134    0.0000 </r>
      </set>
      <set comment="kpoint 112">
       <r> -105.4660    1.0000 </r>
       <r>  -63.1602    1.0000 </r>
       <r>  -62.9518    1.0000 </r>
       <r>  -62.9502    1.0000 </r>
       <r>  -15.0447    1.0000 </r>
       <r>  -13.2246    1.0000 </r>
       <r>   -1.3258    1.0000 </r>
       <r>    0.0861    1.0000 </r>
       <r>    1.8842    1.0000 </r>
       <r>    2.1052    1.0000 </r>
       <r>    2.2592    1.0000 </r>
       <r>    2.3951    1.0000 </r>
       <r>    2.7429    1.0000 </r>
       <r>    3.9907    1.0000 </r>
       <r>    4.1028    1.0000 </r>
       <r>    4.9500    1.0000 </r>
       <r>    4.9998    1.0000 </r>
       <r>    9.2605    0.0000 </r>
       <r>   11.0562    0.0000 </r>
       <r>   13.5291    0.0000 </r>
       <r>   17.9080    0.0000 </r>
       <r>   18.8674    0.0000 </r>
       <r>   19.9725    0.0000 </r>
       <r>   19.9813    0.0000 </r>
       <r>   21.1258    0.0000 </r>
       <r>   22.1542    0.0000 </r>
       <r>   23.1266    0.0000 </r>
       <r>   24.1551    0.0000 </r>
       <r>   25.7623    0.0000 </r>
       <r>   27.4883    0.0000 </r>
       <r>   28.4329    0.0000 </r>
       <r>   28.5373    0.0000 </r>
       <r>   29.8666    0.0000 </r>
       <r>   30.4194    0.0000 </r>
       <r>   30.9542    0.0000 </r>
       <r>   32.6800    0.0000 </r>
      </set>
      <set comment="kpoint 113">
       <r> -105.4654    1.0000 </r>
       <r>  -63.1597    1.0000 </r>
       <r>  -62.9570    1.0000 </r>
       <r>  -62.9517    1.0000 </r>
       <r>  -14.6942    1.0000 </r>
       <r>  -13.0934    1.0000 </r>
       <r>   -1.0568    1.0000 </r>
       <r>   -0.4487    1.0000 </r>
       <r>    1.2127    1.0000 </r>
       <r>    1.5775    1.0000 </r>
       <r>    1.8172    1.0000 </r>
       <r>    2.6224    1.0000 </r>
       <r>    2.8365    1.0000 </r>
       <r>    3.9542    1.0000 </r>
       <r>    4.2941    1.0000 </r>
       <r>    4.7485    1.0000 </r>
       <r>    4.9610    1.0000 </r>
       <r>    9.0805    0.0000 </r>
       <r>   12.2263    0.0000 </r>
       <r>   14.6001    0.0000 </r>
       <r>   17.0149    0.0000 </r>
       <r>   18.1384    0.0000 </r>
       <r>   18.5694    0.0000 </r>
       <r>   20.0058    0.0000 </r>
       <r>   20.5510    0.0000 </r>
       <r>   21.3252    0.0000 </r>
       <r>   23.0120    0.0000 </r>
       <r>   23.3491    0.0000 </r>
       <r>   25.4732    0.0000 </r>
       <r>   26.7704    0.0000 </r>
       <r>   28.7802    0.0000 </r>
       <r>   30.5793    0.0000 </r>
       <r>   30.7350    0.0000 </r>
       <r>   32.1279    0.0000 </r>
       <r>   32.7720    0.0000 </r>
       <r>   33.2796    0.0000 </r>
      </set>
      <set comment="kpoint 114">
       <r> -105.4659    1.0000 </r>
       <r>  -63.1600    1.0000 </r>
       <r>  -62.9517    1.0000 </r>
       <r>  -62.9501    1.0000 </r>
       <r>  -15.0409    1.0000 </r>
       <r>  -13.2311    1.0000 </r>
       <r>   -1.2461    1.0000 </r>
       <r>    0.0046    1.0000 </r>
       <r>    1.8573    1.0000 </r>
       <r>    2.1555    1.0000 </r>
       <r>    2.1803    1.0000 </r>
       <r>    2.5330    1.0000 </r>
       <r>    2.6372    1.0000 </r>
       <r>    3.9902    1.0000 </r>
       <r>    4.1032    1.0000 </r>
       <r>    4.9288    1.0000 </r>
       <r>    5.0354    1.0000 </r>
       <r>    9.3396    0.0000 </r>
       <r>   10.9728    0.0000 </r>
       <r>   13.5290    0.0000 </r>
       <r>   17.9080    0.0000 </r>
       <r>   18.8658    0.0000 </r>
       <r>   19.9628    0.0000 </r>
       <r>   19.9754    0.0000 </r>
       <r>   21.1872    0.0000 </r>
       <r>   22.3696    0.0000 </r>
       <r>   22.9862    0.0000 </r>
       <r>   23.3979    0.0000 </r>
       <r>   25.3153    0.0000 </r>
       <r>   27.6982    0.0000 </r>
       <r>   28.3192    0.0000 </r>
       <r>   29.9831    0.0000 </r>
       <r>   30.0710    0.0000 </r>
       <r>   30.2553    0.0000 </r>
       <r>   31.3295    0.0000 </r>
       <r>   32.2415    0.0000 </r>
      </set>
      <set comment="kpoint 115">
       <r> -105.4656    1.0000 </r>
       <r>  -63.1598    1.0000 </r>
       <r>  -62.9552    1.0000 </r>
       <r>  -62.9512    1.0000 </r>
       <r>  -14.8047    1.0000 </r>
       <r>  -13.1368    1.0000 </r>
       <r>   -1.0758    1.0000 </r>
       <r>   -0.2762    1.0000 </r>
       <r>    1.3656    1.0000 </r>
       <r>    1.6040    1.0000 </r>
       <r>    2.1930    1.0000 </r>
       <r>    2.4056    1.0000 </r>
       <r>    2.7849    1.0000 </r>
       <r>    3.9150    1.0000 </r>
       <r>    4.2586    1.0000 </r>
       <r>    4.8009    1.0000 </r>
       <r>    4.9834    1.0000 </r>
       <r>    9.1964    0.0000 </r>
       <r>   11.8573    0.0000 </r>
       <r>   14.3460    0.0000 </r>
       <r>   17.2623    0.0000 </r>
       <r>   18.3342    0.0000 </r>
       <r>   18.9298    0.0000 </r>
       <r>   20.4737    0.0000 </r>
       <r>   20.5824    0.0000 </r>
       <r>   21.6830    0.0000 </r>
       <r>   22.6426    0.0000 </r>
       <r>   23.4503    0.0000 </r>
       <r>   26.4500    0.0000 </r>
       <r>   26.6695    0.0000 </r>
       <r>   28.7863    0.0000 </r>
       <r>   30.0324    0.0000 </r>
       <r>   30.7189    0.0000 </r>
       <r>   31.8064    0.0000 </r>
       <r>   32.3457    0.0000 </r>
       <r>   32.7630    0.0000 </r>
      </set>
      <set comment="kpoint 116">
       <r> -105.4662    1.0000 </r>
       <r>  -63.1601    1.0000 </r>
       <r>  -62.9499    1.0000 </r>
       <r>  -62.9499    1.0000 </r>
       <r>  -15.1625    1.0000 </r>
       <r>  -13.2879    1.0000 </r>
       <r>   -1.3029    1.0000 </r>
       <r>    0.0622    1.0000 </r>
       <r>    2.0818    1.0000 </r>
       <r>    2.3126    1.0000 </r>
       <r>    2.3126    1.0000 </r>
       <r>    2.6705    1.0000 </r>
       <r>    2.6705    1.0000 </r>
       <r>    4.0306    1.0000 </r>
       <r>    4.0306    1.0000 </r>
       <r>    5.0460    1.0000 </r>
       <r>    5.0460    1.0000 </r>
       <r>    9.4444    0.0000 </r>
       <r>   10.3911    0.0000 </r>
       <r>   13.0564    0.0000 </r>
       <r>   18.1126    0.0000 </r>
       <r>   19.7142    0.0000 </r>
       <r>   19.7142    0.0000 </r>
       <r>   20.9179    0.0000 </r>
       <r>   20.9179    0.0000 </r>
       <r>   21.5924    0.0000 </r>
       <r>   25.0457    0.0000 </r>
       <r>   25.0098    0.0000 </r>
       <r>   25.7484    0.0000 </r>
       <r>   26.2572    0.0000 </r>
       <r>   28.2790    0.0000 </r>
       <r>   28.3478    0.0000 </r>
       <r>   29.0496    0.0000 </r>
       <r>   29.0904    0.0000 </r>
       <r>   30.2201    0.0000 </r>
       <r>   31.6118    0.0000 </r>
      </set>
     </set>
    </set>
   </array>
  </eigenvalues>
  <separator name="orbital magnetization" >
   <v name="MAGDIPOLOUT">      0.00000000      0.00000000      0.00000000</v>
  </separator>
 </calculation>
 <structure name="finalpos" >
  <crystal>
   <varray name="basis" >
    <v>       1.41997479       0.81982283       5.62811517 </v>
    <v>      -1.41997479       0.81982283       5.62811517 </v>
    <v>      -0.00000000      -1.63964565       5.62811517 </v>
   </varray>
   <i name="volume">     39.31107016 </i>
   <varray name="rec_basis" >
    <v>       0.35211893       0.20329596       0.05922646 </v>
    <v>      -0.35211893       0.20329596       0.05922646 </v>
    <v>       0.00000000      -0.40659192       0.05922646 </v>
   </varray>
  </crystal>
  <varray name="positions" >
   <v>       0.00000000       0.00000000       0.00000000 </v>
   <v>       0.50000000       0.50000000       0.50000000 </v>
   <v>       0.10956715       0.10956715       0.10956715 </v>
   <v>       0.89043285       0.89043285       0.89043285 </v>
  </varray>
 </structure>
</modeling>
