<?xml version="1.0" encoding="ISO-8859-1"?>
<modeling>
 <generator>
  <i name="program" type="string">vasp </i>
  <i name="version" type="string">5.4.4.18Apr17-6-g9f103f2a35  </i>
  <i name="subversion" type="string">(build Dec 13 2019 19:06:22) complex            parallel </i>
  <i name="platform" type="string">LinuxIFC </i>
  <i name="date" type="string">2021 07 02 </i>
  <i name="time" type="string">01:01:05 </i>
 </generator>
 <incar>
  <i type="int" name="ISTART">     1</i>
  <i type="string" name="PREC">accurate</i>
  <i type="string" name="ALGO"> Fast</i>
  <i type="int" name="ISPIN">     1</i>
  <i type="int" name="NELM">    60</i>
  <i type="int" name="IBRION">    -1</i>
  <i name="EDIFF">      0.00000010</i>
  <i name="ENCUT">    550.00000000</i>
  <i type="int" name="NBANDS">    36</i>
  <i type="logical" name="LREAL"> F  </i>
  <i type="int" name="ISMEAR">     0</i>
  <v type="int" name="KPOINT_BSE">    -1     0     0     0</v>
  <i type="int" name="NELM">    60</i>
  <i type="string" name="GGA"> PS</i>
 </incar>
 <structure name="primitive_cell" >
  <crystal>
   <varray name="basis" >
    <v>       1.41997479       0.81982283       5.62811517 </v>
    <v>      -1.41997479       0.81982283       5.62811517 </v>
    <v>      -0.00000000      -1.63964565       5.62811517 </v>
   </varray>
   <i name="volume">     39.31107016 </i>
   <varray name="rec_basis" >
    <v>       0.35211893       0.20329596       0.05922646 </v>
    <v>      -0.35211893       0.20329596       0.05922646 </v>
    <v>       0.00000000      -0.40659192       0.05922646 </v>
   </varray>
  </crystal>
  <varray name="positions" >
   <v>       0.00000000       0.00000000       0.00000000 </v>
   <v>       0.10956715       0.10956715       0.10956715 </v>
   <v>      -0.10956715      -0.10956715      -0.10956715 </v>
   <v>      -0.50000000      -0.50000000      -0.50000000 </v>
  </varray>
 </structure>
 <varray name="primitive_index" >
  <v type="int" >        1 </v>
  <v type="int" >        3 </v>
  <v type="int" >        4 </v>
  <v type="int" >        2 </v>
 </varray>
 <kpoints>
  <generation param="Gamma">
   <v type="int" name="divisions">      10       10       10 </v>
   <v name="usershift">      0.00000000       0.00000000       0.00000000 </v>
   <v name="genvec1">      0.10000000       0.00000000       0.00000000 </v>
   <v name="genvec2">      0.00000000       0.10000000       0.00000000 </v>
   <v name="genvec3">     -0.00000000      -0.00000000       0.10000000 </v>
   <v name="shift">      0.00000000       0.00000000       0.00000000 </v>
  </generation>
  <varray name="kpointlist" >
   <v>       0.00000000       0.00000000       0.00000000 </v>
   <v>       0.10000000       0.00000000      -0.00000000 </v>
   <v>       0.20000000      -0.00000000       0.00000000 </v>
   <v>       0.30000000       0.00000000      -0.00000000 </v>
   <v>       0.40000000      -0.00000000       0.00000000 </v>
   <v>       0.50000000      -0.00000000       0.00000000 </v>
   <v>       0.10000000       0.10000000       0.00000000 </v>
   <v>       0.20000000       0.10000000      -0.00000000 </v>
   <v>       0.30000000       0.10000000       0.00000000 </v>
   <v>       0.40000000       0.10000000       0.00000000 </v>
   <v>       0.50000000       0.10000000       0.00000000 </v>
   <v>      -0.40000000       0.10000000      -0.00000000 </v>
   <v>      -0.30000000       0.10000000       0.00000000 </v>
   <v>      -0.20000000       0.10000000       0.00000000 </v>
   <v>      -0.10000000       0.10000000       0.00000000 </v>
   <v>       0.20000000       0.20000000       0.00000000 </v>
   <v>       0.30000000       0.20000000       0.00000000 </v>
   <v>       0.40000000       0.20000000       0.00000000 </v>
   <v>       0.50000000       0.20000000      -0.00000000 </v>
   <v>      -0.40000000       0.20000000       0.00000000 </v>
   <v>      -0.30000000       0.20000000      -0.00000000 </v>
   <v>      -0.20000000       0.20000000       0.00000000 </v>
   <v>       0.30000000       0.30000000       0.00000000 </v>
   <v>       0.40000000       0.30000000      -0.00000000 </v>
   <v>       0.50000000       0.30000000       0.00000000 </v>
   <v>      -0.40000000       0.30000000       0.00000000 </v>
   <v>      -0.30000000       0.30000000       0.00000000 </v>
   <v>       0.40000000       0.40000000       0.00000000 </v>
   <v>       0.50000000       0.40000000       0.00000000 </v>
   <v>      -0.40000000       0.40000000       0.00000000 </v>
   <v>       0.50000000       0.50000000       0.00000000 </v>
   <v>       0.10000000       0.10000000       0.10000000 </v>
   <v>       0.20000000       0.10000000       0.10000000 </v>
   <v>       0.30000000       0.10000000       0.10000000 </v>
   <v>       0.40000000       0.10000000       0.10000000 </v>
   <v>       0.50000000       0.10000000       0.10000000 </v>
   <v>      -0.40000000       0.10000000       0.10000000 </v>
   <v>      -0.30000000       0.10000000       0.10000000 </v>
   <v>      -0.20000000       0.10000000       0.10000000 </v>
   <v>      -0.10000000       0.10000000       0.10000000 </v>
   <v>       0.20000000       0.20000000       0.10000000 </v>
   <v>       0.30000000       0.20000000       0.10000000 </v>
   <v>       0.40000000       0.20000000       0.10000000 </v>
   <v>       0.50000000       0.20000000       0.10000000 </v>
   <v>      -0.40000000       0.20000000       0.10000000 </v>
   <v>      -0.30000000       0.20000000       0.10000000 </v>
   <v>      -0.20000000       0.20000000       0.10000000 </v>
   <v>      -0.10000000       0.20000000       0.10000000 </v>
   <v>       0.30000000       0.30000000       0.10000000 </v>
   <v>       0.40000000       0.30000000       0.10000000 </v>
   <v>       0.50000000       0.30000000       0.10000000 </v>
   <v>      -0.40000000       0.30000000       0.10000000 </v>
   <v>      -0.30000000       0.30000000       0.10000000 </v>
   <v>      -0.20000000       0.30000000       0.10000000 </v>
   <v>      -0.10000000       0.30000000       0.10000000 </v>
   <v>       0.40000000       0.40000000       0.10000000 </v>
   <v>       0.50000000       0.40000000       0.10000000 </v>
   <v>      -0.40000000       0.40000000       0.10000000 </v>
   <v>      -0.30000000       0.40000000       0.10000000 </v>
   <v>      -0.20000000       0.40000000       0.10000000 </v>
   <v>      -0.10000000       0.40000000       0.10000000 </v>
   <v>       0.50000000       0.50000000       0.10000000 </v>
   <v>      -0.40000000       0.50000000       0.10000000 </v>
   <v>      -0.30000000       0.50000000       0.10000000 </v>
   <v>      -0.20000000       0.50000000       0.10000000 </v>
   <v>      -0.10000000       0.50000000       0.10000000 </v>
   <v>      -0.40000000      -0.40000000       0.10000000 </v>
   <v>      -0.30000000      -0.40000000       0.10000000 </v>
   <v>      -0.20000000      -0.40000000       0.10000000 </v>
   <v>      -0.30000000      -0.30000000       0.10000000 </v>
   <v>      -0.20000000      -0.30000000       0.10000000 </v>
   <v>      -0.20000000      -0.20000000       0.10000000 </v>
   <v>       0.20000000       0.20000000       0.20000000 </v>
   <v>       0.30000000       0.20000000       0.20000000 </v>
   <v>       0.40000000       0.20000000       0.20000000 </v>
   <v>       0.50000000       0.20000000       0.20000000 </v>
   <v>      -0.40000000       0.20000000       0.20000000 </v>
   <v>      -0.30000000       0.20000000       0.20000000 </v>
   <v>      -0.20000000       0.20000000       0.20000000 </v>
   <v>       0.30000000       0.30000000       0.20000000 </v>
   <v>       0.40000000       0.30000000       0.20000000 </v>
   <v>       0.50000000       0.30000000       0.20000000 </v>
   <v>      -0.40000000       0.30000000       0.20000000 </v>
   <v>      -0.30000000       0.30000000       0.20000000 </v>
   <v>      -0.20000000       0.30000000       0.20000000 </v>
   <v>       0.40000000       0.40000000       0.20000000 </v>
   <v>       0.50000000       0.40000000       0.20000000 </v>
   <v>      -0.40000000       0.40000000       0.20000000 </v>
   <v>      -0.30000000       0.40000000       0.20000000 </v>
   <v>      -0.20000000       0.40000000       0.20000000 </v>
   <v>       0.50000000       0.50000000       0.20000000 </v>
   <v>      -0.40000000       0.50000000       0.20000000 </v>
   <v>      -0.30000000       0.50000000       0.20000000 </v>
   <v>      -0.20000000       0.50000000       0.20000000 </v>
   <v>      -0.40000000      -0.40000000       0.20000000 </v>
   <v>      -0.30000000      -0.40000000       0.20000000 </v>
   <v>      -0.30000000      -0.30000000       0.20000000 </v>
   <v>       0.30000000       0.30000000       0.30000000 </v>
   <v>       0.40000000       0.30000000       0.30000000 </v>
   <v>       0.50000000       0.30000000       0.30000000 </v>
   <v>      -0.40000000       0.30000000       0.30000000 </v>
   <v>      -0.30000000       0.30000000       0.30000000 </v>
   <v>       0.40000000       0.40000000       0.30000000 </v>
   <v>       0.50000000       0.40000000       0.30000000 </v>
   <v>      -0.40000000       0.40000000       0.30000000 </v>
   <v>      -0.30000000       0.40000000       0.30000000 </v>
   <v>       0.50000000       0.50000000       0.30000000 </v>
   <v>      -0.40000000       0.50000000       0.30000000 </v>
   <v>      -0.30000000       0.50000000       0.30000000 </v>
   <v>      -0.40000000      -0.40000000       0.30000000 </v>
   <v>       0.40000000       0.40000000       0.40000000 </v>
   <v>       0.50000000       0.40000000       0.40000000 </v>
   <v>      -0.40000000       0.40000000       0.40000000 </v>
   <v>       0.50000000       0.50000000       0.40000000 </v>
   <v>      -0.40000000       0.50000000       0.40000000 </v>
   <v>       0.50000000       0.50000000       0.50000000 </v>
  </varray>
  <varray name="weights" >
   <v>       0.00100000 </v>
   <v>       0.00600000 </v>
   <v>       0.00600000 </v>
   <v>       0.00600000 </v>
   <v>       0.00600000 </v>
   <v>       0.00300000 </v>
   <v>       0.00600000 </v>
   <v>       0.01200000 </v>
   <v>       0.01200000 </v>
   <v>       0.01200000 </v>
   <v>       0.01200000 </v>
   <v>       0.01200000 </v>
   <v>       0.01200000 </v>
   <v>       0.01200000 </v>
   <v>       0.00600000 </v>
   <v>       0.00600000 </v>
   <v>       0.01200000 </v>
   <v>       0.01200000 </v>
   <v>       0.01200000 </v>
   <v>       0.01200000 </v>
   <v>       0.01200000 </v>
   <v>       0.00600000 </v>
   <v>       0.00600000 </v>
   <v>       0.01200000 </v>
   <v>       0.01200000 </v>
   <v>       0.01200000 </v>
   <v>       0.00600000 </v>
   <v>       0.00600000 </v>
   <v>       0.01200000 </v>
   <v>       0.00600000 </v>
   <v>       0.00300000 </v>
   <v>       0.00200000 </v>
   <v>       0.00600000 </v>
   <v>       0.00600000 </v>
   <v>       0.00600000 </v>
   <v>       0.00600000 </v>
   <v>       0.00600000 </v>
   <v>       0.00600000 </v>
   <v>       0.00600000 </v>
   <v>       0.00600000 </v>
   <v>       0.00600000 </v>
   <v>       0.01200000 </v>
   <v>       0.01200000 </v>
   <v>       0.01200000 </v>
   <v>       0.01200000 </v>
   <v>       0.01200000 </v>
   <v>       0.01200000 </v>
   <v>       0.01200000 </v>
   <v>       0.00600000 </v>
   <v>       0.01200000 </v>
   <v>       0.01200000 </v>
   <v>       0.01200000 </v>
   <v>       0.01200000 </v>
   <v>       0.01200000 </v>
   <v>       0.01200000 </v>
   <v>       0.00600000 </v>
   <v>       0.01200000 </v>
   <v>       0.01200000 </v>
   <v>       0.01200000 </v>
   <v>       0.01200000 </v>
   <v>       0.01200000 </v>
   <v>       0.00600000 </v>
   <v>       0.01200000 </v>
   <v>       0.01200000 </v>
   <v>       0.01200000 </v>
   <v>       0.00600000 </v>
   <v>       0.00600000 </v>
   <v>       0.01200000 </v>
   <v>       0.01200000 </v>
   <v>       0.00600000 </v>
   <v>       0.01200000 </v>
   <v>       0.00600000 </v>
   <v>       0.00200000 </v>
   <v>       0.00600000 </v>
   <v>       0.00600000 </v>
   <v>       0.00600000 </v>
   <v>       0.00600000 </v>
   <v>       0.00600000 </v>
   <v>       0.00600000 </v>
   <v>       0.00600000 </v>
   <v>       0.01200000 </v>
   <v>       0.01200000 </v>
   <v>       0.01200000 </v>
   <v>       0.01200000 </v>
   <v>       0.01200000 </v>
   <v>       0.00600000 </v>
   <v>       0.01200000 </v>
   <v>       0.01200000 </v>
   <v>       0.01200000 </v>
   <v>       0.01200000 </v>
   <v>       0.00600000 </v>
   <v>       0.01200000 </v>
   <v>       0.01200000 </v>
   <v>       0.00600000 </v>
   <v>       0.00600000 </v>
   <v>       0.01200000 </v>
   <v>       0.00600000 </v>
   <v>       0.00200000 </v>
   <v>       0.00600000 </v>
   <v>       0.00600000 </v>
   <v>       0.00600000 </v>
   <v>       0.00600000 </v>
   <v>       0.00600000 </v>
   <v>       0.01200000 </v>
   <v>       0.01200000 </v>
   <v>       0.01200000 </v>
   <v>       0.00600000 </v>
   <v>       0.01200000 </v>
   <v>       0.00600000 </v>
   <v>       0.00600000 </v>
   <v>       0.00200000 </v>
   <v>       0.00600000 </v>
   <v>       0.00600000 </v>
   <v>       0.00600000 </v>
   <v>       0.00600000 </v>
   <v>       0.00100000 </v>
  </varray>
 </kpoints>
 <parameters>
  <separator name="general" >
   <i type="string" name="SYSTEM">unknown system</i>
   <i type="logical" name="LCOMPAT"> F  </i>
  </separator>
  <separator name="electronic" >
   <i type="string" name="PREC">accura</i>
   <i name="ENMAX">    550.00000000</i>
   <i name="ENAUG">    982.89200000</i>
   <i name="EDIFF">      0.00000010</i>
   <i type="int" name="IALGO">    68</i>
   <i type="int" name="IWAVPR">    10</i>
   <i type="int" name="NBANDS">    36</i>
   <i name="NELECT">     34.00000000</i>
   <i type="int" name="TURBO">     0</i>
   <i type="int" name="IRESTART">     0</i>
   <i type="int" name="NREBOOT">     0</i>
   <i type="int" name="NMIN">     0</i>
   <i name="EREF">      0.00000000</i>
   <separator name="electronic smearing" >
    <i type="int" name="ISMEAR">     0</i>
    <i name="SIGMA">      0.20000000</i>
    <i name="KSPACING">      0.50000000</i>
    <i type="logical" name="KGAMMA"> T  </i>
   </separator>
   <separator name="electronic projectors" >
    <i type="logical" name="LREAL"> F  </i>
    <v name="ROPT">      0.00000000      0.00000000      0.00000000</v>
    <i type="int" name="LMAXPAW">  -100</i>
    <i type="int" name="LMAXMIX">     2</i>
    <i type="logical" name="NLSPLINE"> F  </i>
   </separator>
   <separator name="electronic startup" >
    <i type="int" name="ISTART">     1</i>
    <i type="int" name="ICHARG">     0</i>
    <i type="int" name="INIWAV">     1</i>
   </separator>
   <separator name="electronic spin" >
    <i type="int" name="ISPIN">     1</i>
    <i type="logical" name="LNONCOLLINEAR"> F  </i>
    <v name="MAGMOM">      1.00000000      1.00000000      1.00000000      1.00000000</v>
    <i name="NUPDOWN">     -1.00000000</i>
    <i type="logical" name="LSORBIT"> F  </i>
    <v name="SAXIS">      0.00000000      0.00000000      1.00000000</v>
    <i type="logical" name="LSPIRAL"> F  </i>
    <v name="QSPIRAL">      0.00000000      0.00000000      0.00000000</v>
    <i type="logical" name="LZEROZ"> F  </i>
   </separator>
   <separator name="electronic exchange-correlation" >
    <i type="logical" name="LASPH"> F  </i>
    <i type="logical" name="LMETAGGA"> F  </i>
   </separator>
   <separator name="electronic convergence" >
    <i type="int" name="NELM">    60</i>
    <i type="int" name="NELMDL">     0</i>
    <i type="int" name="NELMIN">     2</i>
    <i name="ENINI">    550.00000000</i>
    <separator name="electronic convergence detail" >
     <i type="logical" name="LDIAG"> T  </i>
     <i type="logical" name="LSUBROT"> F  </i>
     <i name="WEIMIN">      0.00000000</i>
     <i name="EBREAK">      0.00000000</i>
     <i name="DEPER">      0.30000000</i>
     <i type="int" name="NRMM">     4</i>
     <i name="TIME">      0.40000000</i>
    </separator>
   </separator>
   <separator name="electronic mixer" >
    <i name="AMIX">      0.40000000</i>
    <i name="BMIX">      1.00000000</i>
    <i name="AMIN">      0.10000000</i>
    <i name="AMIX_MAG">      1.60000000</i>
    <i name="BMIX_MAG">      1.00000000</i>
    <separator name="electronic mixer details" >
     <i type="int" name="IMIX">     4</i>
     <i type="logical" name="MIXFIRST"> F  </i>
     <i type="int" name="MAXMIX">   -45</i>
     <i name="WC">    100.00000000</i>
     <i type="int" name="INIMIX">     1</i>
     <i type="int" name="MIXPRE">     1</i>
     <i type="int" name="MREMOVE">     5</i>
    </separator>
   </separator>
   <separator name="electronic dipolcorrection" >
    <i type="logical" name="LDIPOL"> F  </i>
    <i type="logical" name="LMONO"> F  </i>
    <i type="int" name="IDIPOL">     0</i>
    <i name="EPSILON">      1.00000000</i>
    <v name="DIPOL">   -100.00000000   -100.00000000   -100.00000000</v>
    <i name="EFIELD">      0.00000000</i>
   </separator>
  </separator>
  <separator name="grids" >
   <i type="int" name="NGX">    48</i>
   <i type="int" name="NGY">    48</i>
   <i type="int" name="NGZ">    48</i>
   <i type="int" name="NGXF">    96</i>
   <i type="int" name="NGYF">    96</i>
   <i type="int" name="NGZF">    96</i>
   <i type="logical" name="ADDGRID"> F  </i>
  </separator>
  <separator name="ionic" >
   <i type="int" name="NSW">     0</i>
   <i type="int" name="IBRION">    -1</i>
   <i type="int" name="MDALGO">     0</i>
   <i type="int" name="ISIF">     2</i>
   <i name="PSTRESS">      0.00000000</i>
   <i name="EDIFFG">      0.00000100</i>
   <i type="int" name="NFREE">     0</i>
   <i name="POTIM">      0.50000000</i>
   <i name="SMASS">     -3.00000000</i>
   <i name="SCALEE">      1.00000000</i>
  </separator>
  <separator name="ionic md" >
   <i name="TEBEG">      0.00010000</i>
   <i name="TEEND">      0.00010000</i>
   <i type="int" name="NBLOCK">     1</i>
   <i type="int" name="KBLOCK">     1</i>
   <i type="int" name="NPACO">   256</i>
   <i name="APACO">     16.00000000</i>
  </separator>
  <separator name="symmetry" >
   <i type="int" name="ISYM">     2</i>
   <i name="SYMPREC">      0.00001000</i>
  </separator>
  <separator name="dos" >
   <i type="int" name="LORBIT">     0</i>
   <v name="RWIGS">     -1.00000000     -1.00000000     -1.00000000</v>
   <i type="int" name="NEDOS">   301</i>
   <i name="EMIN">     10.00000000</i>
   <i name="EMAX">    -10.00000000</i>
   <i name="EFERMI">      0.00000000</i>
  </separator>
  <separator name="writing" >
   <i type="int" name="NWRITE">     2</i>
   <i type="logical" name="LWAVE"> T  </i>
   <i type="logical" name="LDOWNSAMPLE"> F  </i>
   <i type="logical" name="LCHARG"> T  </i>
   <i type="logical" name="LPARD"> F  </i>
   <i type="logical" name="LVTOT"> F  </i>
   <i type="logical" name="LVHAR"> F  </i>
   <i type="logical" name="LELF"> F  </i>
   <i type="logical" name="LOPTICS"> F  </i>
   <v name="STM">      0.00000000      0.00000000      0.00000000      0.00000000      0.00000000      0.00000000      0.00000000</v>
  </separator>
  <separator name="performance" >
   <i type="int" name="NPAR">     2</i>
   <i type="int" name="NSIM">     4</i>
   <i type="int" name="NBLK">    -1</i>
   <i type="logical" name="LPLANE"> T  </i>
   <i type="logical" name="LSCALAPACK"> T  </i>
   <i type="logical" name="LSCAAWARE"> F  </i>
   <i type="logical" name="LSCALU"> F  </i>
   <i type="logical" name="LASYNC"> F  </i>
   <i type="logical" name="LORBITALREAL"> F  </i>
  </separator>
  <separator name="miscellaneous" >
   <i type="int" name="IDIOT">     3</i>
   <i type="int" name="ISPECIAL">     0</i>
   <i type="logical" name="LMUSIC"> F  </i>
   <v name="POMASS">     63.54600000     26.98200000     16.00000000</v>
   <v name="DARWINR">      0.00000000      0.00000000      0.00000000</v>
   <v name="DARWINV">      1.00000000      1.00000000      1.00000000</v>
   <i type="logical" name="LCORR"> T  </i>
  </separator>
  <i type="logical" name="GGA_COMPAT"> T  </i>
  <i type="logical" name="LBERRY"> F  </i>
  <i type="int" name="ICORELEVEL">     0</i>
  <i type="logical" name="LDAU"> F  </i>
  <i type="int" name="I_CONSTRAINED_M">     0</i>
  <separator name="electronic exchange-correlation" >
   <i type="string" name="GGA">PS</i>
   <i type="int" name="VOSKOWN">     0</i>
   <i type="logical" name="LHFCALC"> F  </i>
   <i type="string" name="PRECFOCK"></i>
   <i type="logical" name="LSYMGRAD"> F  </i>
   <i type="logical" name="LHFONE"> F  </i>
   <i type="logical" name="LRHFCALC"> F  </i>
   <i type="logical" name="LTHOMAS"> F  </i>
   <i type="logical" name="LMODELHF"> F  </i>
   <i name="ENCUT4O">     -1.00000000</i>
   <i type="int" name="EXXOEP">     0</i>
   <i type="int" name="FOURORBIT">     0</i>
   <i name="AEXX">      0.00000000</i>
   <i name="HFALPHA">      0.00000000</i>
   <i name="MCALPHA">      0.00000000</i>
   <i name="ALDAX">      1.00000000</i>
   <i name="AGGAX">      1.00000000</i>
   <i name="ALDAC">      1.00000000</i>
   <i name="AGGAC">      1.00000000</i>
   <i type="int" name="NKREDX">     1</i>
   <i type="int" name="NKREDY">     1</i>
   <i type="int" name="NKREDZ">     1</i>
   <i type="logical" name="SHIFTRED"> F  </i>
   <i type="logical" name="ODDONLY"> F  </i>
   <i type="logical" name="EVENONLY"> F  </i>
   <i type="int" name="LMAXFOCK">     0</i>
   <i type="int" name="NMAXFOCKAE">     0</i>
   <i type="logical" name="LFOCKAEDFT"> F  </i>
   <i name="HFSCREEN">      0.00000000</i>
   <i name="HFSCREENC">      0.00000000</i>
   <i type="int" name="NBANDSGWLOW">     0</i>
  </separator>
  <separator name="vdW DFT" >
   <i type="logical" name="LUSE_VDW"> F  </i>
   <i name="Zab_VDW">     -0.84910000</i>
   <i name="PARAM1">      0.12340000</i>
   <i name="PARAM2">      1.00000000</i>
   <i name="PARAM3">      0.00000000</i>
  </separator>
  <separator name="model GW" >
   <i type="int" name="MODEL_GW">     0</i>
   <i name="MODEL_EPS0">      5.89666052</i>
   <i name="MODEL_ALPHA">      1.00000000</i>
  </separator>
  <separator name="linear response parameters" >
   <i type="logical" name="LEPSILON"> F  </i>
   <i type="logical" name="LRPA"> F  </i>
   <i type="logical" name="LNABLA"> F  </i>
   <i type="logical" name="LVEL"> F  </i>
   <i type="int" name="KINTER">     0</i>
   <i name="CSHIFT">      0.10000000</i>
   <i name="OMEGAMAX">     -1.00000000</i>
   <i name="DEG_THRESHOLD">      0.00200000</i>
   <i name="RTIME">     -0.10000000</i>
   <i name="WPLASMAI">      0.00000000</i>
   <v name="DFIELD">      0.00000000      0.00000000      0.00000000</v>
   <v name="WPLASMA">      0.00000000      0.00000000      0.00000000      0.00000000      0.00000000      0.00000000      0.00000000      0.00000000      0.00000000</v>
  </separator>
  <separator name="orbital magnetization" >
   <i type="logical" name="NUCIND"> F  </i>
   <v name="MAGPOS">      0.00000000      0.00000000      0.00000000</v>
   <i type="logical" name="LNICSALL"> T  </i>
   <i type="logical" name="ORBITALMAG"> F  </i>
   <i type="logical" name="LMAGBLOCH"> F  </i>
   <i type="logical" name="LCHIMAG"> F  </i>
   <i type="logical" name="LGAUGE"> T  </i>
   <i type="int" name="MAGATOM">     0</i>
   <v name="MAGDIPOL">      0.00000000      0.00000000      0.00000000</v>
   <v name="AVECCONST">      0.00000000      0.00000000      0.00000000</v>
  </separator>
  <separator name="response functions" >
   <i type="logical" name="LADDER"> F  </i>
   <i type="logical" name="LRPAFORCE"> F  </i>
   <i type="logical" name="LFXC"> F  </i>
   <i type="logical" name="LHARTREE"> T  </i>
   <i type="int" name="IBSE">     0</i>
   <v type="int" name="KPOINT">    -1     0     0     0</v>
   <i type="logical" name="LTCTE"> F  </i>
   <i type="logical" name="LTETE"> F  </i>
   <i type="logical" name="LTRIPLET"> F  </i>
   <i type="logical" name="LFXCEPS"> F  </i>
   <i type="logical" name="LFXHEG"> F  </i>
   <i type="int" name="NATURALO">     2</i>
   <i type="logical" name="L2ORDER"> F  </i>
   <i type="logical" name="LMP2LT"> F  </i>
   <i type="logical" name="LUSEW"> F  </i>
   <i name="ENCUTGW">     -2.00000000</i>
   <i name="ENCUTGWSOFT">     -2.00000000</i>
   <i name="ENCUTLF">     -1.00000000</i>
   <i type="int" name="LMAXMP2">    -1</i>
   <i name="SCISSOR">      0.00000000</i>
   <i type="int" name="NOMEGA">     0</i>
   <i type="int" name="NOMEGAR">     0</i>
   <i type="int" name="NBANDSGW">    -1</i>
   <i type="int" name="NBANDSO">    -1</i>
   <i type="int" name="NBANDSV">    -1</i>
   <i type="int" name="NELM">    60</i>
   <i type="int" name="NELMHF">     1</i>
   <i type="int" name="DIM">     3</i>
   <i type="int" name="ANTIRES">     0</i>
   <i name="OMEGAMAX">    -30.00000000</i>
   <i name="OMEGAMIN">    -30.00000000</i>
   <i name="OMEGATL">   -200.00000000</i>
   <i type="int" name="OMEGAGRID">   140</i>
   <i name="CSHIFT">     -0.10000000</i>
   <i type="logical" name="SELFENERGY"> F  </i>
   <i type="logical" name="LSPECTRAL"> F  </i>
   <i type="logical" name="LSPECTRALGW"> F  </i>
   <i type="logical" name="LSINGLES"> F  </i>
   <i type="logical" name="LFERMIGW"> F  </i>
   <i type="logical" name="ODDONLYGW"> F  </i>
   <i type="logical" name="EVENONLYGW"> F  </i>
   <i type="int" name="NKREDLFX">     1</i>
   <i type="int" name="NKREDLFY">     1</i>
   <i type="int" name="NKREDLFZ">     1</i>
   <i type="int" name="MAXMEM">  2800</i>
   <i type="int" name="TELESCOPE">     0</i>
   <i type="int" name="TAUPAR">     1</i>
   <i type="int" name="OMEGAPAR">    -1</i>
   <i name="LAMBDA">      1.00000000</i>
  </separator>
  <separator name="External order field" >
   <i name="OFIELD_KAPPA">      0.00000000</i>
   <v name="OFIELD_K">      0.00000000      0.00000000      0.00000000</v>
   <i name="OFIELD_Q6_NEAR">      0.00000000</i>
   <i name="OFIELD_Q6_FAR">      0.00000000</i>
   <i name="OFIELD_A">      0.00000000</i>
  </separator>
 </parameters>
 <atominfo>
  <atoms>       4 </atoms>
  <types>       3 </types>
  <array name="atoms" >
   <dimension dim="1">ion</dimension>
   <field type="string">element</field>
   <field type="int">atomtype</field>
   <set>
    <rc><c>Cu</c><c>   1</c></rc>
    <rc><c>Al</c><c>   2</c></rc>
    <rc><c>O </c><c>   3</c></rc>
    <rc><c>O </c><c>   3</c></rc>
   </set>
  </array>
  <array name="atomtypes" >
   <dimension dim="1">type</dimension>
   <field type="int">atomspertype</field>
   <field type="string">element</field>
   <field>mass</field>
   <field>valence</field>
   <field type="string">pseudopotential</field>
   <set>
    <rc><c>   1</c><c>Cu</c><c>     63.54600000</c><c>     19.00000000</c><c>  PAW_PBE Cu_sv_GW 05Dec2013            </c></rc>
    <rc><c>   1</c><c>Al</c><c>     26.98200000</c><c>      3.00000000</c><c>  PAW_PBE Al_GW 19Mar2012               </c></rc>
    <rc><c>   2</c><c>O </c><c>     16.00000000</c><c>      6.00000000</c><c>  PAW_PBE O_GW 28Sep2005                </c></rc>
   </set>
  </array>
 </atominfo>
 <structure name="initialpos" >
  <crystal>
   <varray name="basis" >
    <v>       1.41997479       0.81982283       5.62811517 </v>
    <v>      -1.41997479       0.81982283       5.62811517 </v>
    <v>      -0.00000000      -1.63964565       5.62811517 </v>
   </varray>
   <i name="volume">     39.31107016 </i>
   <varray name="rec_basis" >
    <v>       0.35211893       0.20329596       0.05922646 </v>
    <v>      -0.35211893       0.20329596       0.05922646 </v>
    <v>       0.00000000      -0.40659192       0.05922646 </v>
   </varray>
  </crystal>
  <varray name="positions" >
   <v>       0.00000000       0.00000000       0.00000000 </v>
   <v>       0.50000000       0.50000000       0.50000000 </v>
   <v>       0.10956715       0.10956715       0.10956715 </v>
   <v>       0.89043285       0.89043285       0.89043285 </v>
  </varray>
 </structure>
 <calculation>
  <scstep>
   <time name="dav">   10.11   10.16</time>
   <time name="total">   11.03   11.09</time>
   <energy>
    <i name="alphaZ">    167.30580229 </i>
    <i name="ewald">  -3351.26154090 </i>
    <i name="hartreedc">  -2402.76994556 </i>
    <i name="XCdc">    180.99994438 </i>
    <i name="pawpsdc">   5404.74766901 </i>
    <i name="pawaedc">  -5729.75740160 </i>
    <i name="eentropy">     -0.00000000 </i>
    <i name="bandstr">   -590.18363415 </i>
    <i name="atom">   6293.50105541 </i>
    <i name="e_fr_energy">    -27.41805112 </i>
    <i name="e_wo_entrp">    -27.41805112 </i>
    <i name="e_0_energy">    -27.41805112 </i>
   </energy>
  </scstep>
  <scstep>
   <time name="diag">    2.10    2.11</time>
   <time name="diis">   12.67   12.73</time>
   <time name="orth">    0.06    0.06</time>
   <time name="total">   15.72   15.80</time>
   <energy>
    <i name="e_fr_energy">    -27.41714771 </i>
    <i name="e_wo_entrp">    -27.41714771 </i>
    <i name="e_0_energy">    -27.41714771 </i>
   </energy>
  </scstep>
  <scstep>
   <time name="diag">    2.10    2.10</time>
   <time name="diis">   11.73   11.78</time>
   <time name="orth">    0.05    0.05</time>
   <time name="total">   14.77   14.84</time>
   <energy>
    <i name="e_fr_energy">    -27.41119355 </i>
    <i name="e_wo_entrp">    -27.41119355 </i>
    <i name="e_0_energy">    -27.41119355 </i>
   </energy>
  </scstep>
  <scstep>
   <time name="diag">    2.10    2.11</time>
   <time name="diis">   13.35   13.41</time>
   <time name="orth">    0.06    0.06</time>
   <time name="total">   16.42   16.49</time>
   <energy>
    <i name="e_fr_energy">    -27.41126111 </i>
    <i name="e_wo_entrp">    -27.41126111 </i>
    <i name="e_0_energy">    -27.41126111 </i>
   </energy>
  </scstep>
  <scstep>
   <time name="diag">    2.15    2.16</time>
   <time name="diis">   13.73   13.79</time>
   <time name="orth">    0.05    0.05</time>
   <time name="total">   16.84   16.92</time>
   <energy>
    <i name="e_fr_energy">    -27.41126044 </i>
    <i name="e_wo_entrp">    -27.41126044 </i>
    <i name="e_0_energy">    -27.41126044 </i>
   </energy>
  </scstep>
  <scstep>
   <time name="diag">    2.12    2.13</time>
   <time name="diis">   12.78   12.84</time>
   <time name="orth">    0.05    0.05</time>
   <time name="total">   15.87   15.94</time>
   <energy>
    <i name="e_fr_energy">    -27.41124781 </i>
    <i name="e_wo_entrp">    -27.41124781 </i>
    <i name="e_0_energy">    -27.41124781 </i>
   </energy>
  </scstep>
  <scstep>
   <time name="diag">    2.14    2.15</time>
   <time name="diis">   12.42   12.48</time>
   <time name="orth">    0.05    0.06</time>
   <time name="total">   15.46   15.53</time>
   <energy>
    <i name="e_fr_energy">    -27.41124175 </i>
    <i name="e_wo_entrp">    -27.41124175 </i>
    <i name="e_0_energy">    -27.41124175 </i>
   </energy>
  </scstep>
  <scstep>
   <time name="diag">    2.10    2.11</time>
   <time name="diis">   13.50   13.56</time>
   <time name="orth">    0.05    0.05</time>
   <time name="total">   16.50   16.57</time>
   <energy>
    <i name="e_fr_energy">    -27.41124261 </i>
    <i name="e_wo_entrp">    -27.41124261 </i>
    <i name="e_0_energy">    -27.41124261 </i>
   </energy>
  </scstep>
  <scstep>
   <time name="diag">    2.15    2.16</time>
   <time name="diis">   11.83   11.89</time>
   <time name="orth">    0.06    0.06</time>
   <time name="total">   14.89   14.96</time>
   <energy>
    <i name="e_fr_energy">    -27.41124269 </i>
    <i name="e_wo_entrp">    -27.41124269 </i>
    <i name="e_0_energy">    -27.41124269 </i>
   </energy>
  </scstep>
  <scstep>
   <time name="diag">    2.14    2.15</time>
   <time name="diis">   10.77   10.83</time>
   <time name="orth">    0.05    0.05</time>
   <time name="total">   13.19   13.26</time>
   <energy>
    <i name="alphaZ">    167.30580229 </i>
    <i name="ewald">  -3351.26154090 </i>
    <i name="hartreedc">  -2400.68243951 </i>
    <i name="XCdc">    180.92938992 </i>
    <i name="pawpsdc">   5402.12841103 </i>
    <i name="pawaedc">  -5725.96144878 </i>
    <i name="eentropy">     -0.00000000 </i>
    <i name="bandstr">   -593.37047223 </i>
    <i name="atom">   6293.50105541 </i>
    <i name="e_fr_energy">    -27.41124277 </i>
    <i name="e_wo_entrp">    -27.41124277 </i>
    <i name="e_0_energy">    -27.41124277 </i>
   </energy>
  </scstep>
  <structure>
   <crystal>
    <varray name="basis" >
     <v>       1.41997479       0.81982283       5.62811517 </v>
     <v>      -1.41997479       0.81982283       5.62811517 </v>
     <v>      -0.00000000      -1.63964565       5.62811517 </v>
    </varray>
    <i name="volume">     39.31107016 </i>
    <varray name="rec_basis" >
     <v>       0.35211893       0.20329596       0.05922646 </v>
     <v>      -0.35211893       0.20329596       0.05922646 </v>
     <v>       0.00000000      -0.40659192       0.05922646 </v>
    </varray>
   </crystal>
   <varray name="positions" >
    <v>       0.00000000       0.00000000       0.00000000 </v>
    <v>       0.50000000       0.50000000       0.50000000 </v>
    <v>       0.10956715       0.10956715       0.10956715 </v>
    <v>       0.89043285       0.89043285       0.89043285 </v>
   </varray>
  </structure>
  <varray name="forces" >
   <v>       0.00000000       0.00000000      -0.00000000 </v>
   <v>       0.00000000       0.00000000      -0.00000000 </v>
   <v>       0.00000000      -0.00000000      -0.00265188 </v>
   <v>      -0.00000000       0.00000000       0.00265188 </v>
  </varray>
  <varray name="stress" >
   <v>       1.83436272       0.00000000       0.00000000 </v>
   <v>       0.00000000       1.83436272       0.00000000 </v>
   <v>       0.00000000       0.00000000       1.55354536 </v>
  </varray>
  <energy>
   <i name="e_fr_energy">    -27.41124277 </i>
   <i name="e_wo_entrp">    -27.41124277 </i>
   <i name="e_0_energy">     -0.00000000 </i>
  </energy>
  <time name="totalsc">  155.27  155.99</time>
  <eigenvalues>
   <array>
    <dimension dim="1">band</dimension>
    <dimension dim="2">kpoint</dimension>
    <dimension dim="3">spin</dimension>
    <field>eigene</field>
    <field>occ</field>
    <set>
     <set comment="spin 1">
      <set comment="kpoint 1">
       <r> -105.4658    1.0000 </r>
       <r>  -63.1609    1.0000 </r>
       <r>  -62.9498    1.0000 </r>
       <r>  -62.9498    1.0000 </r>
       <r>  -15.2680    1.0000 </r>
       <r>  -13.0906    1.0000 </r>
       <r>   -2.5931    1.0000 </r>
       <r>    1.8899    1.0000 </r>
       <r>    1.9938    1.0000 </r>
       <r>    1.9938    1.0000 </r>
       <r>    2.0499    1.0000 </r>
       <r>    3.1945    1.0000 </r>
       <r>    3.1945    1.0000 </r>
       <r>    4.0304    1.0000 </r>
       <r>    4.0304    1.0000 </r>
       <r>    4.8161    1.0000 </r>
       <r>    4.8161    1.0000 </r>
       <r>    7.7750    0.0000 </r>
       <r>   11.9090    0.0000 </r>
       <r>   13.1315    0.0000 </r>
       <r>   17.5390    0.0000 </r>
       <r>   19.6689    0.0000 </r>
       <r>   19.6635    0.0000 </r>
       <r>   24.6630    0.0000 </r>
       <r>   25.6272    0.0000 </r>
       <r>   25.9369    0.0000 </r>
       <r>   26.9562    0.0000 </r>
       <r>   26.9578    0.0000 </r>
       <r>   27.2171    0.0000 </r>
       <r>   30.2152    0.0000 </r>
       <r>   31.0470    0.0000 </r>
       <r>   31.0567    0.0000 </r>
       <r>   31.8727    0.0000 </r>
       <r>   21.5181    0.0000 </r>
       <r>   25.3601    0.0000 </r>
       <r>   37.0701    0.0000 </r>
      </set>
      <set comment="kpoint 2">
       <r> -105.4656    1.0000 </r>
       <r>  -63.1603    1.0000 </r>
       <r>  -62.9518    1.0000 </r>
       <r>  -62.9503    1.0000 </r>
       <r>  -15.1447    1.0000 </r>
       <r>  -13.0414    1.0000 </r>
       <r>   -2.4657    1.0000 </r>
       <r>    1.1804    1.0000 </r>
       <r>    1.8180    1.0000 </r>
       <r>    1.8864    1.0000 </r>
       <r>    2.4527    1.0000 </r>
       <r>    2.9425    1.0000 </r>
       <r>    3.1410    1.0000 </r>
       <r>    3.9926    1.0000 </r>
       <r>    4.1053    1.0000 </r>
       <r>    4.7596    1.0000 </r>
       <r>    4.7948    1.0000 </r>
       <r>    7.9757    0.0000 </r>
       <r>   12.3221    0.0000 </r>
       <r>   13.4359    0.0000 </r>
       <r>   17.5243    0.0000 </r>
       <r>   18.9055    0.0000 </r>
       <r>   19.9006    0.0000 </r>
       <r>   23.7888    0.0000 </r>
       <r>   24.7695    0.0000 </r>
       <r>   25.7005    0.0000 </r>
       <r>   27.5642    0.0000 </r>
       <r>   27.5064    0.0000 </r>
       <r>   12.5401    0.0000 </r>
       <r>   13.0797    0.0000 </r>
       <r>   18.1586    0.0000 </r>
       <r>   29.4964    0.0000 </r>
       <r>   16.1958    0.0000 </r>
       <r>   30.6647    0.0000 </r>
       <r>   31.3591    0.0000 </r>
       <r>   34.1692    0.0000 </r>
      </set>
      <set comment="kpoint 3">
       <r> -105.4650    1.0000 </r>
       <r>  -63.1594    1.0000 </r>
       <r>  -62.9567    1.0000 </r>
       <r>  -62.9514    1.0000 </r>
       <r>  -14.7962    1.0000 </r>
       <r>  -12.9189    1.0000 </r>
       <r>   -2.1437    1.0000 </r>
       <r>    0.0510    1.0000 </r>
       <r>    1.2266    1.0000 </r>
       <r>    1.6241    1.0000 </r>
       <r>    2.5266    1.0000 </r>
       <r>    2.9418    1.0000 </r>
       <r>    3.0018    1.0000 </r>
       <r>    3.9464    1.0000 </r>
       <r>    4.2991    1.0000 </r>
       <r>    4.6151    1.0000 </r>
       <r>    4.7412    1.0000 </r>
       <r>    8.3400    0.0000 </r>
       <r>   13.1986    0.0000 </r>
       <r>   14.1764    0.0000 </r>
       <r>   17.1968    0.0000 </r>
       <r>   17.7051    0.0000 </r>
       <r>   18.6978    0.0000 </r>
       <r>   19.4489    0.0000 </r>
       <r>   21.6868    0.0000 </r>
       <r>   22.9881    0.0000 </r>
       <r>   14.7444    0.0000 </r>
       <r>   23.9097    0.0000 </r>
       <r>   25.2106    0.0000 </r>
       <r>   27.2680    0.0000 </r>
       <r>   27.8414    0.0000 </r>
       <r>   29.5205    0.0000 </r>
       <r>   31.3155    0.0000 </r>
       <r>   32.0045    0.0000 </r>
       <r>   32.0930    0.0000 </r>
       <r>   34.2565    0.0000 </r>
      </set>
      <set comment="kpoint 4">
       <r> -105.4644    1.0000 </r>
       <r>  -63.1586    1.0000 </r>
       <r>  -62.9634    1.0000 </r>
       <r>  -62.9530    1.0000 </r>
       <r>  -14.2925    1.0000 </r>
       <r>  -12.7958    1.0000 </r>
       <r>   -1.8387    1.0000 </r>
       <r>   -1.0910    1.0000 </r>
       <r>    0.4908    1.0000 </r>
       <r>    1.3296    1.0000 </r>
       <r>    2.3417    1.0000 </r>
       <r>    2.8295    1.0000 </r>
       <r>    3.1865    1.0000 </r>
       <r>    4.2479    1.0000 </r>
       <r>    4.4575    1.0000 </r>
       <r>    4.5423    1.0000 </r>
       <r>    4.6784    1.0000 </r>
       <r>    8.5758    0.0000 </r>
       <r>   13.6247    0.0000 </r>
       <r>   14.4249    0.0000 </r>
       <r>   16.4260    0.0000 </r>
       <r>   16.8647    0.0000 </r>
       <r>   17.8618    0.0000 </r>
       <r>   18.3520    0.0000 </r>
       <r>   21.0035    0.0000 </r>
       <r>   22.9761    0.0000 </r>
       <r>   23.8151    0.0000 </r>
       <r>   23.9575    0.0000 </r>
       <r>   26.5595    0.0000 </r>
       <r>   28.1901    0.0000 </r>
       <r>   30.0654    0.0000 </r>
       <r>   31.4132    0.0000 </r>
       <r>   32.9673    0.0000 </r>
       <r>   34.1607    0.0000 </r>
       <r>   35.2629    0.0000 </r>
       <r>   24.5821    0.0000 </r>
      </set>
      <set comment="kpoint 5">
       <r> -105.4638    1.0000 </r>
       <r>  -63.1580    1.0000 </r>
       <r>  -62.9688    1.0000 </r>
       <r>  -62.9542    1.0000 </r>
       <r>  -13.7711    1.0000 </r>
       <r>  -12.7674    1.0000 </r>
       <r>   -2.0027    1.0000 </r>
       <r>   -1.7648    1.0000 </r>
       <r>    0.2518    1.0000 </r>
       <r>    1.1102    1.0000 </r>
       <r>    2.0678    1.0000 </r>
       <r>    2.6902    1.0000 </r>
       <r>    3.1768    1.0000 </r>
       <r>    4.3417    1.0000 </r>
       <r>    4.6303    1.0000 </r>
       <r>    4.7468    1.0000 </r>
       <r>    5.1176    1.0000 </r>
       <r>    8.5245    0.0000 </r>
       <r>   12.6173    0.0000 </r>
       <r>   13.7535    0.0000 </r>
       <r>   16.6515    0.0000 </r>
       <r>   17.1399    0.0000 </r>
       <r>   17.9074    0.0000 </r>
       <r>   21.3036    0.0000 </r>
       <r>   22.4142    0.0000 </r>
       <r>   22.9562    0.0000 </r>
       <r>   25.7893    0.0000 </r>
       <r>   27.1085    0.0000 </r>
       <r>   28.8413    0.0000 </r>
       <r>   30.7343    0.0000 </r>
       <r>   31.3651    0.0000 </r>
       <r>   33.1221    0.0000 </r>
       <r>   33.9829    0.0000 </r>
       <r>   17.1319    0.0000 </r>
       <r>   35.3159    0.0000 </r>
       <r>   35.3338    0.0000 </r>
      </set>
      <set comment="kpoint 6">
       <r> -105.4636    1.0000 </r>
       <r>  -63.1577    1.0000 </r>
       <r>  -62.9709    1.0000 </r>
       <r>  -62.9546    1.0000 </r>
       <r>  -13.5033    1.0000 </r>
       <r>  -12.8136    1.0000 </r>
       <r>   -2.3006    1.0000 </r>
       <r>   -1.8682    1.0000 </r>
       <r>    0.2975    1.0000 </r>
       <r>    1.0301    1.0000 </r>
       <r>    1.9193    1.0000 </r>
       <r>    2.6372    1.0000 </r>
       <r>    3.1440    1.0000 </r>
       <r>    4.3023    1.0000 </r>
       <r>    4.6125    1.0000 </r>
       <r>    4.8272    1.0000 </r>
       <r>    5.7133    1.0000 </r>
       <r>    8.3191    0.0000 </r>
       <r>   11.8949    0.0000 </r>
       <r>   13.5634    0.0000 </r>
       <r>   16.8132    0.0000 </r>
       <r>   17.2966    0.0000 </r>
       <r>   18.2064    0.0000 </r>
       <r>   19.8110    0.0000 </r>
       <r>   21.3055    0.0000 </r>
       <r>   21.5771    0.0000 </r>
       <r>   22.9142    0.0000 </r>
       <r>   25.7081    0.0000 </r>
       <r>   11.3989    0.0000 </r>
       <r>   28.6429    0.0000 </r>
       <r>   28.9009    0.0000 </r>
       <r>   31.3390    0.0000 </r>
       <r>   31.4230    0.0000 </r>
       <r>   32.9746    0.0000 </r>
       <r>   33.0609    0.0000 </r>
       <r>   35.8538    0.0000 </r>
      </set>
      <set comment="kpoint 7">
       <r> -105.4656    1.0000 </r>
       <r>  -63.1602    1.0000 </r>
       <r>  -62.9517    1.0000 </r>
       <r>  -62.9502    1.0000 </r>
       <r>  -15.1415    1.0000 </r>
       <r>  -13.0475    1.0000 </r>
       <r>   -2.4388    1.0000 </r>
       <r>    1.1730    1.0000 </r>
       <r>    1.7809    1.0000 </r>
       <r>    1.9181    1.0000 </r>
       <r>    2.4186    1.0000 </r>
       <r>    3.0000    1.0000 </r>
       <r>    3.0690    1.0000 </r>
       <r>    3.9922    1.0000 </r>
       <r>    4.1056    1.0000 </r>
       <r>    4.7325    1.0000 </r>
       <r>    4.8402    1.0000 </r>
       <r>    8.0173    0.0000 </r>
       <r>   12.2951    0.0000 </r>
       <r>   13.4095    0.0000 </r>
       <r>   17.5493    0.0000 </r>
       <r>   18.9013    0.0000 </r>
       <r>   19.8814    0.0000 </r>
       <r>   21.3637    0.0000 </r>
       <r>   22.9362    0.0000 </r>
       <r>   24.2990    0.0000 </r>
       <r>   14.3033    0.0000 </r>
       <r>   23.5944    0.0000 </r>
       <r>   27.0349    0.0000 </r>
       <r>   28.1898    0.0000 </r>
       <r>   28.7681    0.0000 </r>
       <r>   29.4069    0.0000 </r>
       <r>   31.3709    0.0000 </r>
       <r>   27.2838    0.0000 </r>
       <r>   24.4467    0.0000 </r>
       <r>   32.1223    0.0000 </r>
      </set>
      <set comment="kpoint 8">
       <r> -105.4652    1.0000 </r>
       <r>  -63.1596    1.0000 </r>
       <r>  -62.9548    1.0000 </r>
       <r>  -62.9511    1.0000 </r>
       <r>  -14.9022    1.0000 </r>
       <r>  -12.9668    1.0000 </r>
       <r>   -2.1897    1.0000 </r>
       <r>    0.4321    1.0000 </r>
       <r>    1.2238    1.0000 </r>
       <r>    1.8728    1.0000 </r>
       <r>    2.4764    1.0000 </r>
       <r>    2.8371    1.0000 </r>
       <r>    3.0122    1.0000 </r>
       <r>    3.9262    1.0000 </r>
       <r>    4.2563    1.0000 </r>
       <r>    4.6330    1.0000 </r>
       <r>    4.8088    1.0000 </r>
       <r>    8.3226    0.0000 </r>
       <r>   12.9200    0.0000 </r>
       <r>   13.9683    0.0000 </r>
       <r>   17.3857    0.0000 </r>
       <r>   18.0031    0.0000 </r>
       <r>   19.0295    0.0000 </r>
       <r>   18.7371    0.0000 </r>
       <r>   21.5550    0.0000 </r>
       <r>   22.5774    0.0000 </r>
       <r>   23.9053    0.0000 </r>
       <r>   12.9346    0.0000 </r>
       <r>   25.4458    0.0000 </r>
       <r>   26.7703    0.0000 </r>
       <r>   28.2496    0.0000 </r>
       <r>   29.6620    0.0000 </r>
       <r>   31.0831    0.0000 </r>
       <r>   31.6201    0.0000 </r>
       <r>   32.0588    0.0000 </r>
       <r>   32.9379    0.0000 </r>
      </set>
      <set comment="kpoint 9">
       <r> -105.4646    1.0000 </r>
       <r>  -63.1588    1.0000 </r>
       <r>  -62.9607    1.0000 </r>
       <r>  -62.9532    1.0000 </r>
       <r>  -14.4716    1.0000 </r>
       <r>  -12.8462    1.0000 </r>
       <r>   -1.8552    1.0000 </r>
       <r>   -0.5471    1.0000 </r>
       <r>    0.4876    1.0000 </r>
       <r>    1.5229    1.0000 </r>
       <r>    2.3585    1.0000 </r>
       <r>    2.6255    1.0000 </r>
       <r>    3.2983    1.0000 </r>
       <r>    3.9038    1.0000 </r>
       <r>    4.5047    1.0000 </r>
       <r>    4.5491    1.0000 </r>
       <r>    4.7183    1.0000 </r>
       <r>    8.5954    0.0000 </r>
       <r>   13.7328    0.0000 </r>
       <r>   14.8924    0.0000 </r>
       <r>   16.6677    0.0000 </r>
       <r>   16.8184    0.0000 </r>
       <r>   18.3621    0.0000 </r>
       <r>   18.6835    0.0000 </r>
       <r>   22.4860    0.0000 </r>
       <r>   23.3989    0.0000 </r>
       <r>   24.5852    0.0000 </r>
       <r>   26.9044    0.0000 </r>
       <r>   28.1698    0.0000 </r>
       <r>   29.9576    0.0000 </r>
       <r>   18.6474    0.0000 </r>
       <r>   32.0107    0.0000 </r>
       <r>   32.2711    0.0000 </r>
       <r>   33.3629    0.0000 </r>
       <r>   34.8157    0.0000 </r>
       <r>   36.0705    0.0000 </r>
      </set>
      <set comment="kpoint 10">
       <r> -105.4640    1.0000 </r>
       <r>  -63.1581    1.0000 </r>
       <r>  -62.9663    1.0000 </r>
       <r>  -62.9549    1.0000 </r>
       <r>  -13.9485    1.0000 </r>
       <r>  -12.7713    1.0000 </r>
       <r>   -1.7243    1.0000 </r>
       <r>   -1.4844    1.0000 </r>
       <r>    0.1690    1.0000 </r>
       <r>    1.0397    1.0000 </r>
       <r>    2.1603    1.0000 </r>
       <r>    2.4185    1.0000 </r>
       <r>    3.4010    1.0000 </r>
       <r>    4.3134    1.0000 </r>
       <r>    4.4115    1.0000 </r>
       <r>    4.6334    1.0000 </r>
       <r>    4.9924    1.0000 </r>
       <r>    8.6644    0.0000 </r>
       <r>   13.6920    0.0000 </r>
       <r>   14.3630    0.0000 </r>
       <r>   16.5512    0.0000 </r>
       <r>   16.7914    0.0000 </r>
       <r>   17.7467    0.0000 </r>
       <r>   18.4538    0.0000 </r>
       <r>   22.8074    0.0000 </r>
       <r>   23.7995    0.0000 </r>
       <r>   14.1760    0.0000 </r>
       <r>   26.0883    0.0000 </r>
       <r>   27.4257    0.0000 </r>
       <r>   27.5027    0.0000 </r>
       <r>   14.1843    0.0000 </r>
       <r>   30.4477    0.0000 </r>
       <r>   32.4184    0.0000 </r>
       <r>   32.8747    0.0000 </r>
       <r>   34.5337    0.0000 </r>
       <r>   35.3334    0.0000 </r>
      </set>
      <set comment="kpoint 11">
       <r> -105.4636    1.0000 </r>
       <r>  -63.1577    1.0000 </r>
       <r>  -62.9698    1.0000 </r>
       <r>  -62.9561    1.0000 </r>
       <r>  -13.5206    1.0000 </r>
       <r>  -12.8011    1.0000 </r>
       <r>   -2.1172    1.0000 </r>
       <r>   -1.7637    1.0000 </r>
       <r>    0.3080    1.0000 </r>
       <r>    0.6380    1.0000 </r>
       <r>    2.0454    1.0000 </r>
       <r>    2.2749    1.0000 </r>
       <r>    3.3416    1.0000 </r>
       <r>    4.3356    1.0000 </r>
       <r>    4.5806    1.0000 </r>
       <r>    4.6592    1.0000 </r>
       <r>    5.6196    1.0000 </r>
       <r>    8.5994    0.0000 </r>
       <r>   12.3648    0.0000 </r>
       <r>   14.0780    0.0000 </r>
       <r>   16.9820    0.0000 </r>
       <r>   17.2501    0.0000 </r>
       <r>   17.7687    0.0000 </r>
       <r>   18.3010    0.0000 </r>
       <r>   22.8041    0.0000 </r>
       <r>   23.0618    0.0000 </r>
       <r>   26.9771    0.0000 </r>
       <r>   27.4814    0.0000 </r>
       <r>   27.6827    0.0000 </r>
       <r>   31.0836    0.0000 </r>
       <r>   32.7666    0.0000 </r>
       <r>   33.2010    0.0000 </r>
       <r>   33.7667    0.0000 </r>
       <r>   35.4407    0.0000 </r>
       <r>   22.6045    0.0000 </r>
       <r>   35.1191    0.0000 </r>
      </set>
      <set comment="kpoint 12">
       <r> -105.4636    1.0000 </r>
       <r>  -63.1577    1.0000 </r>
       <r>  -62.9698    1.0000 </r>
       <r>  -62.9561    1.0000 </r>
       <r>  -13.5339    1.0000 </r>
       <r>  -12.7845    1.0000 </r>
       <r>   -2.1407    1.0000 </r>
       <r>   -1.7535    1.0000 </r>
       <r>    0.2263    1.0000 </r>
       <r>    0.7040    1.0000 </r>
       <r>    2.0663    1.0000 </r>
       <r>    2.3143    1.0000 </r>
       <r>    3.3368    1.0000 </r>
       <r>    4.3287    1.0000 </r>
       <r>    4.5829    1.0000 </r>
       <r>    4.6511    1.0000 </r>
       <r>    5.5408    1.0000 </r>
       <r>    8.7603    0.0000 </r>
       <r>   12.2631    0.0000 </r>
       <r>   14.1025    0.0000 </r>
       <r>   16.7934    0.0000 </r>
       <r>   17.1589    0.0000 </r>
       <r>   17.8574    0.0000 </r>
       <r>   18.4044    0.0000 </r>
       <r>   22.5499    0.0000 </r>
       <r>   23.1629    0.0000 </r>
       <r>   26.9506    0.0000 </r>
       <r>   27.1082    0.0000 </r>
       <r>   28.1213    0.0000 </r>
       <r>   31.2001    0.0000 </r>
       <r>   32.6602    0.0000 </r>
       <r>   33.0363    0.0000 </r>
       <r>   34.1476    0.0000 </r>
       <r>   35.4501    0.0000 </r>
       <r>   32.8732    0.0000 </r>
       <r>   47.0958    0.0000 </r>
      </set>
      <set comment="kpoint 13">
       <r> -105.4640    1.0000 </r>
       <r>  -63.1580    1.0000 </r>
       <r>  -62.9662    1.0000 </r>
       <r>  -62.9548    1.0000 </r>
       <r>  -13.9674    1.0000 </r>
       <r>  -12.7438    1.0000 </r>
       <r>   -1.8317    1.0000 </r>
       <r>   -1.4268    1.0000 </r>
       <r>    0.0988    1.0000 </r>
       <r>    1.0889    1.0000 </r>
       <r>    2.2275    1.0000 </r>
       <r>    2.5021    1.0000 </r>
       <r>    3.3833    1.0000 </r>
       <r>    4.2958    1.0000 </r>
       <r>    4.3840    1.0000 </r>
       <r>    4.6322    1.0000 </r>
       <r>    4.9339    1.0000 </r>
       <r>    8.8096    0.0000 </r>
       <r>   13.5592    0.0000 </r>
       <r>   14.3943    0.0000 </r>
       <r>   16.3123    0.0000 </r>
       <r>   16.8123    0.0000 </r>
       <r>   17.7364    0.0000 </r>
       <r>   18.5881    0.0000 </r>
       <r>   22.4870    0.0000 </r>
       <r>   23.5550    0.0000 </r>
       <r>   25.7613    0.0000 </r>
       <r>   27.4659    0.0000 </r>
       <r>   27.9305    0.0000 </r>
       <r>   13.6785    0.0000 </r>
       <r>   30.7360    0.0000 </r>
       <r>   32.0565    0.0000 </r>
       <r>   33.1776    0.0000 </r>
       <r>   34.7712    0.0000 </r>
       <r>   35.6974    0.0000 </r>
       <r>   42.4871    0.0000 </r>
      </set>
      <set comment="kpoint 14">
       <r> -105.4646    1.0000 </r>
       <r>  -63.1587    1.0000 </r>
       <r>  -62.9606    1.0000 </r>
       <r>  -62.9531    1.0000 </r>
       <r>  -14.4866    1.0000 </r>
       <r>  -12.8211    1.0000 </r>
       <r>   -1.9540    1.0000 </r>
       <r>   -0.5194    1.0000 </r>
       <r>    0.4562    1.0000 </r>
       <r>    1.5353    1.0000 </r>
       <r>    2.4984    1.0000 </r>
       <r>    2.6738    1.0000 </r>
       <r>    3.2642    1.0000 </r>
       <r>    3.9041    1.0000 </r>
       <r>    4.4974    1.0000 </r>
       <r>    4.5317    1.0000 </r>
       <r>    4.7063    1.0000 </r>
       <r>    8.5742    0.0000 </r>
       <r>   13.9660    0.0000 </r>
       <r>   14.4845    0.0000 </r>
       <r>   16.7882    0.0000 </r>
       <r>   16.9836    0.0000 </r>
       <r>   17.9949    0.0000 </r>
       <r>   18.9282    0.0000 </r>
       <r>   21.3434    0.0000 </r>
       <r>   22.3342    0.0000 </r>
       <r>   23.8306    0.0000 </r>
       <r>   25.2737    0.0000 </r>
       <r>   27.2802    0.0000 </r>
       <r>   28.0440    0.0000 </r>
       <r>   30.5439    0.0000 </r>
       <r>   31.6611    0.0000 </r>
       <r>   32.5619    0.0000 </r>
       <r>   33.5854    0.0000 </r>
       <r>   34.7391    0.0000 </r>
       <r>   40.6838    0.0000 </r>
      </set>
      <set comment="kpoint 15">
       <r> -105.4652    1.0000 </r>
       <r>  -63.1596    1.0000 </r>
       <r>  -62.9548    1.0000 </r>
       <r>  -62.9513    1.0000 </r>
       <r>  -14.9117    1.0000 </r>
       <r>  -12.9496    1.0000 </r>
       <r>   -2.2634    1.0000 </r>
       <r>    0.4583    1.0000 </r>
       <r>    1.2156    1.0000 </r>
       <r>    1.8518    1.0000 </r>
       <r>    2.5923    1.0000 </r>
       <r>    2.9208    1.0000 </r>
       <r>    2.9616    1.0000 </r>
       <r>    3.9277    1.0000 </r>
       <r>    4.2550    1.0000 </r>
       <r>    4.6403    1.0000 </r>
       <r>    4.7724    1.0000 </r>
       <r>    8.2336    0.0000 </r>
       <r>   13.0508    0.0000 </r>
       <r>   13.9051    0.0000 </r>
       <r>   17.3718    0.0000 </r>
       <r>   18.0226    0.0000 </r>
       <r>   18.9341    0.0000 </r>
       <r>   19.0598    0.0000 </r>
       <r>   21.5847    0.0000 </r>
       <r>   15.5923    0.0000 </r>
       <r>   22.6021    0.0000 </r>
       <r>   23.9041    0.0000 </r>
       <r>   26.4195    0.0000 </r>
       <r>   26.4925    0.0000 </r>
       <r>   28.0601    0.0000 </r>
       <r>   29.5634    0.0000 </r>
       <r>   31.2943    0.0000 </r>
       <r>   31.4671    0.0000 </r>
       <r>   32.3154    0.0000 </r>
       <r>   32.7476    0.0000 </r>
      </set>
      <set comment="kpoint 16">
       <r> -105.4650    1.0000 </r>
       <r>  -63.1592    1.0000 </r>
       <r>  -62.9566    1.0000 </r>
       <r>  -62.9513    1.0000 </r>
       <r>  -14.7834    1.0000 </r>
       <r>  -12.9415    1.0000 </r>
       <r>   -2.0452    1.0000 </r>
       <r>    0.0600    1.0000 </r>
       <r>    1.1266    1.0000 </r>
       <r>    1.7253    1.0000 </r>
       <r>    2.4081    1.0000 </r>
       <r>    2.7806    1.0000 </r>
       <r>    3.0498    1.0000 </r>
       <r>    3.9583    1.0000 </r>
       <r>    4.2969    1.0000 </r>
       <r>    4.5337    1.0000 </r>
       <r>    4.8827    1.0000 </r>
       <r>    8.5011    0.0000 </r>
       <r>   13.0605    0.0000 </r>
       <r>   13.9922    0.0000 </r>
       <r>   17.3686    0.0000 </r>
       <r>   17.7786    0.0000 </r>
       <r>   18.4122    0.0000 </r>
       <r>   17.6685    0.0000 </r>
       <r>   22.2122    0.0000 </r>
       <r>   22.6312    0.0000 </r>
       <r>   22.7566    0.0000 </r>
       <r>   23.4078    0.0000 </r>
       <r>   26.7712    0.0000 </r>
       <r>   29.1515    0.0000 </r>
       <r>   30.8419    0.0000 </r>
       <r>   31.3618    0.0000 </r>
       <r>   32.2275    0.0000 </r>
       <r>   32.7022    0.0000 </r>
       <r>   33.8255    0.0000 </r>
       <r>   43.8797    0.0000 </r>
      </set>
      <set comment="kpoint 17">
       <r> -105.4646    1.0000 </r>
       <r>  -63.1586    1.0000 </r>
       <r>  -62.9606    1.0000 </r>
       <r>  -62.9529    1.0000 </r>
       <r>  -14.4615    1.0000 </r>
       <r>  -12.8627    1.0000 </r>
       <r>   -1.7968    1.0000 </r>
       <r>   -0.4949    1.0000 </r>
       <r>    0.4050    1.0000 </r>
       <r>    1.6329    1.0000 </r>
       <r>    2.2672    1.0000 </r>
       <r>    2.4722    1.0000 </r>
       <r>    3.3018    1.0000 </r>
       <r>    3.9244    1.0000 </r>
       <r>    4.4239    1.0000 </r>
       <r>    4.5501    1.0000 </r>
       <r>    4.8420    1.0000 </r>
       <r>    8.7358    0.0000 </r>
       <r>   13.6273    0.0000 </r>
       <r>   14.5620    0.0000 </r>
       <r>   17.0466    0.0000 </r>
       <r>   17.1329    0.0000 </r>
       <r>   17.6281    0.0000 </r>
       <r>   19.0805    0.0000 </r>
       <r>   21.7115    0.0000 </r>
       <r>   22.0947    0.0000 </r>
       <r>   23.7642    0.0000 </r>
       <r>   14.2007    0.0000 </r>
       <r>   24.8646    0.0000 </r>
       <r>   27.7738    0.0000 </r>
       <r>   28.6026    0.0000 </r>
       <r>   30.9628    0.0000 </r>
       <r>   31.5186    0.0000 </r>
       <r>   32.7812    0.0000 </r>
       <r>   33.7634    0.0000 </r>
       <r>   34.0234    0.0000 </r>
      </set>
      <set comment="kpoint 18">
       <r> -105.4641    1.0000 </r>
       <r>  -63.1583    1.0000 </r>
       <r>  -62.9644    1.0000 </r>
       <r>  -62.9560    1.0000 </r>
       <r>  -14.0048    1.0000 </r>
       <r>  -12.7892    1.0000 </r>
       <r>   -1.6621    1.0000 </r>
       <r>   -0.9710    1.0000 </r>
       <r>   -0.2372    1.0000 </r>
       <r>    1.2907    1.0000 </r>
       <r>    1.8614    1.0000 </r>
       <r>    2.2269    1.0000 </r>
       <r>    3.7669    1.0000 </r>
       <r>    3.8093    1.0000 </r>
       <r>    4.3548    1.0000 </r>
       <r>    4.7283    1.0000 </r>
       <r>    5.0165    1.0000 </r>
       <r>    8.8990    0.0000 </r>
       <r>   14.4793    0.0000 </r>
       <r>   15.4400    0.0000 </r>
       <r>   15.6757    0.0000 </r>
       <r>   16.6133    0.0000 </r>
       <r>   17.1689    0.0000 </r>
       <r>   18.2709    0.0000 </r>
       <r>   17.7894    0.0000 </r>
       <r>   21.6308    0.0000 </r>
       <r>   22.3160    0.0000 </r>
       <r>   24.2929    0.0000 </r>
       <r>   25.7389    0.0000 </r>
       <r>   27.4571    0.0000 </r>
       <r>   29.9159    0.0000 </r>
       <r>   30.0117    0.0000 </r>
       <r>   31.9623    0.0000 </r>
       <r>   33.6021    0.0000 </r>
       <r>   33.8861    0.0000 </r>
       <r>   35.1569    0.0000 </r>
      </set>
      <set comment="kpoint 19">
       <r> -105.4637    1.0000 </r>
       <r>  -63.1577    1.0000 </r>
       <r>  -62.9675    1.0000 </r>
       <r>  -62.9586    1.0000 </r>
       <r>  -13.5388    1.0000 </r>
       <r>  -12.7932    1.0000 </r>
       <r>   -1.7169    1.0000 </r>
       <r>   -1.5142    1.0000 </r>
       <r>   -0.2640    1.0000 </r>
       <r>    0.7099    1.0000 </r>
       <r>    1.6464    1.0000 </r>
       <r>    2.0737    1.0000 </r>
       <r>    3.6888    1.0000 </r>
       <r>    4.2088    1.0000 </r>
       <r>    4.3501    1.0000 </r>
       <r>    4.6062    1.0000 </r>
       <r>    5.5407    1.0000 </r>
       <r>    9.1154    0.0000 </r>
       <r>   13.4559    0.0000 </r>
       <r>   14.9985    0.0000 </r>
       <r>   16.1096    0.0000 </r>
       <r>   16.9775    0.0000 </r>
       <r>   17.1850    0.0000 </r>
       <r>   17.8069    0.0000 </r>
       <r>   18.2386    0.0000 </r>
       <r>   22.6673    0.0000 </r>
       <r>   24.4106    0.0000 </r>
       <r>   25.6866    0.0000 </r>
       <r>   26.9201    0.0000 </r>
       <r>   29.4457    0.0000 </r>
       <r>   31.0526    0.0000 </r>
       <r>   32.8186    0.0000 </r>
       <r>   33.7259    0.0000 </r>
       <r>   35.2800    0.0000 </r>
       <r>   23.0304    0.0000 </r>
       <r>   35.7338    0.0000 </r>
      </set>
      <set comment="kpoint 20">
       <r> -105.4635    1.0000 </r>
       <r>  -63.1575    1.0000 </r>
       <r>  -62.9685    1.0000 </r>
       <r>  -62.9597    1.0000 </r>
       <r>  -13.3135    1.0000 </r>
       <r>  -12.8295    1.0000 </r>
       <r>   -1.9254    1.0000 </r>
       <r>   -1.5653    1.0000 </r>
       <r>   -0.2854    1.0000 </r>
       <r>    0.4904    1.0000 </r>
       <r>    1.5314    1.0000 </r>
       <r>    2.1344    1.0000 </r>
       <r>    3.6410    1.0000 </r>
       <r>    4.3477    1.0000 </r>
       <r>    4.4050    1.0000 </r>
       <r>    4.5202    1.0000 </r>
       <r>    5.7165    1.0000 </r>
       <r>    9.5036    0.0000 </r>
       <r>   12.4145    0.0000 </r>
       <r>   15.1344    0.0000 </r>
       <r>   15.6935    0.0000 </r>
       <r>   17.2358    0.0000 </r>
       <r>   17.4549    0.0000 </r>
       <r>   18.0814    0.0000 </r>
       <r>   18.6478    0.0000 </r>
       <r>   23.0320    0.0000 </r>
       <r>   24.1925    0.0000 </r>
       <r>   25.3613    0.0000 </r>
       <r>   26.4685    0.0000 </r>
       <r>   29.6978    0.0000 </r>
       <r>   31.3569    0.0000 </r>
       <r>   33.0517    0.0000 </r>
       <r>   33.6634    0.0000 </r>
       <r>   34.0607    0.0000 </r>
       <r>   35.8620    0.0000 </r>
       <r>   30.3265    0.0000 </r>
      </set>
      <set comment="kpoint 21">
       <r> -105.4637    1.0000 </r>
       <r>  -63.1577    1.0000 </r>
       <r>  -62.9674    1.0000 </r>
       <r>  -62.9586    1.0000 </r>
       <r>  -13.5786    1.0000 </r>
       <r>  -12.7423    1.0000 </r>
       <r>   -1.8587    1.0000 </r>
       <r>   -1.3761    1.0000 </r>
       <r>   -0.4667    1.0000 </r>
       <r>    0.8744    1.0000 </r>
       <r>    1.5090    1.0000 </r>
       <r>    2.3696    1.0000 </r>
       <r>    3.6774    1.0000 </r>
       <r>    4.1923    1.0000 </r>
       <r>    4.3892    1.0000 </r>
       <r>    4.5228    1.0000 </r>
       <r>    5.3985    1.0000 </r>
       <r>    9.3818    0.0000 </r>
       <r>   13.3446    0.0000 </r>
       <r>   15.1747    0.0000 </r>
       <r>   15.5510    0.0000 </r>
       <r>   16.5532    0.0000 </r>
       <r>   17.4735    0.0000 </r>
       <r>   18.0940    0.0000 </r>
       <r>   22.8297    0.0000 </r>
       <r>   14.8282    0.0000 </r>
       <r>   23.7713    0.0000 </r>
       <r>   25.6884    0.0000 </r>
       <r>   26.5015    0.0000 </r>
       <r>   30.2016    0.0000 </r>
       <r>   31.5873    0.0000 </r>
       <r>   32.4600    0.0000 </r>
       <r>   33.3910    0.0000 </r>
       <r>   34.9792    0.0000 </r>
       <r>   35.3081    0.0000 </r>
       <r>   42.3277    0.0000 </r>
      </set>
      <set comment="kpoint 22">
       <r> -105.4641    1.0000 </r>
       <r>  -63.1583    1.0000 </r>
       <r>  -62.9644    1.0000 </r>
       <r>  -62.9558    1.0000 </r>
       <r>  -14.0408    1.0000 </r>
       <r>  -12.7359    1.0000 </r>
       <r>   -1.8029    1.0000 </r>
       <r>   -0.9586    1.0000 </r>
       <r>   -0.3125    1.0000 </r>
       <r>    1.2994    1.0000 </r>
       <r>    1.9018    1.0000 </r>
       <r>    2.5678    1.0000 </r>
       <r>    3.7116    1.0000 </r>
       <r>    3.7993    1.0000 </r>
       <r>    4.4164    1.0000 </r>
       <r>    4.6166    1.0000 </r>
       <r>    4.9355    1.0000 </r>
       <r>    8.9540    0.0000 </r>
       <r>   14.7443    0.0000 </r>
       <r>   15.0868    0.0000 </r>
       <r>   15.6241    0.0000 </r>
       <r>   16.2380    0.0000 </r>
       <r>   17.5007    0.0000 </r>
       <r>   18.1304    0.0000 </r>
       <r>   22.2992    0.0000 </r>
       <r>   23.7059    0.0000 </r>
       <r>   25.7247    0.0000 </r>
       <r>   26.7200    0.0000 </r>
       <r>   29.8180    0.0000 </r>
       <r>   17.5494    0.0000 </r>
       <r>   31.0379    0.0000 </r>
       <r>   31.4869    0.0000 </r>
       <r>   19.3117    0.0000 </r>
       <r>   33.8457    0.0000 </r>
       <r>   34.3103    0.0000 </r>
       <r>   34.7788    0.0000 </r>
      </set>
      <set comment="kpoint 23">
       <r> -105.4644    1.0000 </r>
       <r>  -63.1586    1.0000 </r>
       <r>  -62.9635    1.0000 </r>
       <r>  -62.9532    1.0000 </r>
       <r>  -14.2625    1.0000 </r>
       <r>  -12.8432    1.0000 </r>
       <r>   -1.7416    1.0000 </r>
       <r>   -0.9407    1.0000 </r>
       <r>    0.3755    1.0000 </r>
       <r>    1.4988    1.0000 </r>
       <r>    2.1125    1.0000 </r>
       <r>    2.4693    1.0000 </r>
       <r>    3.2206    1.0000 </r>
       <r>    4.2615    1.0000 </r>
       <r>    4.3771    1.0000 </r>
       <r>    4.5390    1.0000 </r>
       <r>    4.9103    1.0000 </r>
       <r>    8.8700    0.0000 </r>
       <r>   13.4425    0.0000 </r>
       <r>   14.1650    0.0000 </r>
       <r>   16.5133    0.0000 </r>
       <r>   17.2336    0.0000 </r>
       <r>   17.6044    0.0000 </r>
       <r>   15.6933    0.0000 </r>
       <r>   21.7890    0.0000 </r>
       <r>   22.7393    0.0000 </r>
       <r>   23.6837    0.0000 </r>
       <r>   24.2163    0.0000 </r>
       <r>   13.1905    0.0000 </r>
       <r>   26.8129    0.0000 </r>
       <r>   30.2124    0.0000 </r>
       <r>   30.7429    0.0000 </r>
       <r>   31.5292    0.0000 </r>
       <r>   32.6665    0.0000 </r>
       <r>   33.8041    0.0000 </r>
       <r>   35.6385    0.0000 </r>
      </set>
      <set comment="kpoint 24">
       <r> -105.4640    1.0000 </r>
       <r>  -63.1581    1.0000 </r>
       <r>  -62.9663    1.0000 </r>
       <r>  -62.9548    1.0000 </r>
       <r>  -13.9171    1.0000 </r>
       <r>  -12.8161    1.0000 </r>
       <r>   -1.8524    1.0000 </r>
       <r>   -1.1068    1.0000 </r>
       <r>    0.0237    1.0000 </r>
       <r>    1.3260    1.0000 </r>
       <r>    1.8235    1.0000 </r>
       <r>    2.1855    1.0000 </r>
       <r>    3.3580    1.0000 </r>
       <r>    4.2133    1.0000 </r>
       <r>    4.3714    1.0000 </r>
       <r>    4.8609    1.0000 </r>
       <r>    5.0258    1.0000 </r>
       <r>    8.9821    0.0000 </r>
       <r>   13.6245    0.0000 </r>
       <r>   14.5718    0.0000 </r>
       <r>   15.8266    0.0000 </r>
       <r>   16.9111    0.0000 </r>
       <r>   17.5415    0.0000 </r>
       <r>   18.9431    0.0000 </r>
       <r>   18.9541    0.0000 </r>
       <r>   21.7535    0.0000 </r>
       <r>   22.8227    0.0000 </r>
       <r>   24.1404    0.0000 </r>
       <r>   25.3276    0.0000 </r>
       <r>   27.8719    0.0000 </r>
       <r>   29.4946    0.0000 </r>
       <r>   30.7355    0.0000 </r>
       <r>   31.4480    0.0000 </r>
       <r>   32.8694    0.0000 </r>
       <r>   34.3260    0.0000 </r>
       <r>   35.2639    0.0000 </r>
      </set>
      <set comment="kpoint 25">
       <r> -105.4637    1.0000 </r>
       <r>  -63.1578    1.0000 </r>
       <r>  -62.9675    1.0000 </r>
       <r>  -62.9586    1.0000 </r>
       <r>  -13.5100    1.0000 </r>
       <r>  -12.8292    1.0000 </r>
       <r>   -1.8920    1.0000 </r>
       <r>   -1.1289    1.0000 </r>
       <r>   -0.4528    1.0000 </r>
       <r>    1.1402    1.0000 </r>
       <r>    1.2293    1.0000 </r>
       <r>    1.9587    1.0000 </r>
       <r>    3.6419    1.0000 </r>
       <r>    4.1945    1.0000 </r>
       <r>    4.2805    1.0000 </r>
       <r>    4.7384    1.0000 </r>
       <r>    5.5575    1.0000 </r>
       <r>    9.3409    0.0000 </r>
       <r>   13.4659    0.0000 </r>
       <r>   15.4653    0.0000 </r>
       <r>   15.6585    0.0000 </r>
       <r>   16.0386    0.0000 </r>
       <r>   17.4514    0.0000 </r>
       <r>   18.3659    0.0000 </r>
       <r>   18.6424    0.0000 </r>
       <r>   21.5498    0.0000 </r>
       <r>   22.4458    0.0000 </r>
       <r>   24.9343    0.0000 </r>
       <r>   24.9870    0.0000 </r>
       <r>   28.0958    0.0000 </r>
       <r>   29.6893    0.0000 </r>
       <r>   30.8108    0.0000 </r>
       <r>   31.9601    0.0000 </r>
       <r>   33.5227    0.0000 </r>
       <r>   34.0751    0.0000 </r>
       <r>   35.1727    0.0000 </r>
      </set>
      <set comment="kpoint 26">
       <r> -105.4635    1.0000 </r>
       <r>  -63.1575    1.0000 </r>
       <r>  -62.9665    1.0000 </r>
       <r>  -62.9625    1.0000 </r>
       <r>  -13.1678    1.0000 </r>
       <r>  -12.9131    1.0000 </r>
       <r>   -1.6666    1.0000 </r>
       <r>   -1.3124    1.0000 </r>
       <r>   -0.8150    1.0000 </r>
       <r>    0.5900    1.0000 </r>
       <r>    1.1389    1.0000 </r>
       <r>    1.9574    1.0000 </r>
       <r>    3.8939    1.0000 </r>
       <r>    4.1490    1.0000 </r>
       <r>    4.2861    1.0000 </r>
       <r>    4.5983    1.0000 </r>
       <r>    5.7637    1.0000 </r>
       <r>   10.3039    0.0000 </r>
       <r>   12.1745    0.0000 </r>
       <r>   14.8808    0.0000 </r>
       <r>   15.9299    0.0000 </r>
       <r>   16.9910    0.0000 </r>
       <r>   17.6754    0.0000 </r>
       <r>   18.0194    0.0000 </r>
       <r>   18.6104    0.0000 </r>
       <r>   21.3532    0.0000 </r>
       <r>   22.4500    0.0000 </r>
       <r>   24.5270    0.0000 </r>
       <r>   25.7017    0.0000 </r>
       <r>   26.5742    0.0000 </r>
       <r>   29.5736    0.0000 </r>
       <r>   32.3434    0.0000 </r>
       <r>   33.2151    0.0000 </r>
       <r>   33.6083    0.0000 </r>
       <r>   33.7871    0.0000 </r>
       <r>   35.6561    0.0000 </r>
      </set>
      <set comment="kpoint 27">
       <r> -105.4635    1.0000 </r>
       <r>  -63.1576    1.0000 </r>
       <r>  -62.9665    1.0000 </r>
       <r>  -62.9626    1.0000 </r>
       <r>  -13.2349    1.0000 </r>
       <r>  -12.8389    1.0000 </r>
       <r>   -1.7008    1.0000 </r>
       <r>   -1.1459    1.0000 </r>
       <r>   -1.0756    1.0000 </r>
       <r>    0.6985    1.0000 </r>
       <r>    1.0280    1.0000 </r>
       <r>    2.1637    1.0000 </r>
       <r>    3.9382    1.0000 </r>
       <r>    4.1001    1.0000 </r>
       <r>    4.3855    1.0000 </r>
       <r>    4.4748    1.0000 </r>
       <r>    5.6792    1.0000 </r>
       <r>   10.3424    0.0000 </r>
       <r>   12.3118    0.0000 </r>
       <r>   14.5617    0.0000 </r>
       <r>   15.8820    0.0000 </r>
       <r>   17.2828    0.0000 </r>
       <r>   17.5060    0.0000 </r>
       <r>   17.9910    0.0000 </r>
       <r>   18.4220    0.0000 </r>
       <r>   23.5305    0.0000 </r>
       <r>   23.8532    0.0000 </r>
       <r>   25.3616    0.0000 </r>
       <r>   25.4686    0.0000 </r>
       <r>   30.9762    0.0000 </r>
       <r>   31.6403    0.0000 </r>
       <r>   33.4567    0.0000 </r>
       <r>   33.6862    0.0000 </r>
       <r>   34.2171    0.0000 </r>
       <r>   35.0959    0.0000 </r>
       <r>   23.6634    0.0000 </r>
      </set>
      <set comment="kpoint 28">
       <r> -105.4639    1.0000 </r>
       <r>  -63.1581    1.0000 </r>
       <r>  -62.9689    1.0000 </r>
       <r>  -62.9544    1.0000 </r>
       <r>  -13.7061    1.0000 </r>
       <r>  -12.8545    1.0000 </r>
       <r>   -2.1910    1.0000 </r>
       <r>   -1.2816    1.0000 </r>
       <r>    0.2874    1.0000 </r>
       <r>    1.3254    1.0000 </r>
       <r>    1.6472    1.0000 </r>
       <r>    2.2393    1.0000 </r>
       <r>    3.1752    1.0000 </r>
       <r>    4.1280    1.0000 </r>
       <r>    4.7454    1.0000 </r>
       <r>    4.9215    1.0000 </r>
       <r>    5.2297    1.0000 </r>
       <r>    8.8731    0.0000 </r>
       <r>   13.0256    0.0000 </r>
       <r>   14.1386    0.0000 </r>
       <r>   15.0746    0.0000 </r>
       <r>   17.1847    0.0000 </r>
       <r>   17.9286    0.0000 </r>
       <r>   19.0292    0.0000 </r>
       <r>   18.2007    0.0000 </r>
       <r>   21.9955    0.0000 </r>
       <r>   23.1681    0.0000 </r>
       <r>   24.5039    0.0000 </r>
       <r>   26.1751    0.0000 </r>
       <r>   26.6031    0.0000 </r>
       <r>   29.9127    0.0000 </r>
       <r>   31.4032    0.0000 </r>
       <r>   31.4740    0.0000 </r>
       <r>   32.6499    0.0000 </r>
       <r>   32.7968    0.0000 </r>
       <r>   35.8978    0.0000 </r>
      </set>
      <set comment="kpoint 29">
       <r> -105.4636    1.0000 </r>
       <r>  -63.1579    1.0000 </r>
       <r>  -62.9697    1.0000 </r>
       <r>  -62.9560    1.0000 </r>
       <r>  -13.4329    1.0000 </r>
       <r>  -12.9079    1.0000 </r>
       <r>   -2.3045    1.0000 </r>
       <r>   -1.3046    1.0000 </r>
       <r>    0.1940    1.0000 </r>
       <r>    1.1762    1.0000 </r>
       <r>    1.3993    1.0000 </r>
       <r>    1.9957    1.0000 </r>
       <r>    3.2865    1.0000 </r>
       <r>    4.1091    1.0000 </r>
       <r>    4.6682    1.0000 </r>
       <r>    4.8682    1.0000 </r>
       <r>    5.6769    1.0000 </r>
       <r>    8.9971    0.0000 </r>
       <r>   12.8554    0.0000 </r>
       <r>   14.6353    0.0000 </r>
       <r>   14.9417    0.0000 </r>
       <r>   16.7855    0.0000 </r>
       <r>   17.9097    0.0000 </r>
       <r>   18.5898    0.0000 </r>
       <r>   18.9889    0.0000 </r>
       <r>   21.7757    0.0000 </r>
       <r>   22.9933    0.0000 </r>
       <r>   25.3418    0.0000 </r>
       <r>   26.6169    0.0000 </r>
       <r>   27.6626    0.0000 </r>
       <r>   29.4705    0.0000 </r>
       <r>   30.1669    0.0000 </r>
       <r>   31.7775    0.0000 </r>
       <r>   32.9282    0.0000 </r>
       <r>   33.5567    0.0000 </r>
       <r>   34.5818    0.0000 </r>
      </set>
      <set comment="kpoint 30">
       <r> -105.4635    1.0000 </r>
       <r>  -63.1577    1.0000 </r>
       <r>  -62.9686    1.0000 </r>
       <r>  -62.9598    1.0000 </r>
       <r>  -13.1961    1.0000 </r>
       <r>  -12.9610    1.0000 </r>
       <r>   -2.0827    1.0000 </r>
       <r>   -1.1242    1.0000 </r>
       <r>   -0.4837    1.0000 </r>
       <r>    0.9629    1.0000 </r>
       <r>    1.1504    1.0000 </r>
       <r>    1.8074    1.0000 </r>
       <r>    3.5898    1.0000 </r>
       <r>    4.1690    1.0000 </r>
       <r>    4.4289    1.0000 </r>
       <r>    4.7421    1.0000 </r>
       <r>    5.8060    1.0000 </r>
       <r>    9.7818    0.0000 </r>
       <r>   12.4097    0.0000 </r>
       <r>   15.4395    0.0000 </r>
       <r>   15.7646    0.0000 </r>
       <r>   15.8723    0.0000 </r>
       <r>   17.7953    0.0000 </r>
       <r>   18.2727    0.0000 </r>
       <r>   18.6463    0.0000 </r>
       <r>   21.6390    0.0000 </r>
       <r>   22.3484    0.0000 </r>
       <r>   24.7120    0.0000 </r>
       <r>   27.5325    0.0000 </r>
       <r>   27.5858    0.0000 </r>
       <r>   28.8195    0.0000 </r>
       <r>   30.5812    0.0000 </r>
       <r>   32.3852    0.0000 </r>
       <r>   33.3079    0.0000 </r>
       <r>   33.3447    0.0000 </r>
       <r>   35.4193    0.0000 </r>
      </set>
      <set comment="kpoint 31">
       <r> -105.4636    1.0000 </r>
       <r>  -63.1578    1.0000 </r>
       <r>  -62.9708    1.0000 </r>
       <r>  -62.9548    1.0000 </r>
       <r>  -13.3805    1.0000 </r>
       <r>  -12.9599    1.0000 </r>
       <r>   -2.4779    1.0000 </r>
       <r>   -1.4175    1.0000 </r>
       <r>    0.5509    1.0000 </r>
       <r>    1.2615    1.0000 </r>
       <r>    1.3049    1.0000 </r>
       <r>    2.1552    1.0000 </r>
       <r>    3.1366    1.0000 </r>
       <r>    4.0655    1.0000 </r>
       <r>    4.8273    1.0000 </r>
       <r>    4.9240    1.0000 </r>
       <r>    5.7978    1.0000 </r>
       <r>    8.6808    0.0000 </r>
       <r>   12.6998    0.0000 </r>
       <r>   14.3493    0.0000 </r>
       <r>   14.3565    0.0000 </r>
       <r>   17.0146    0.0000 </r>
       <r>   18.0539    0.0000 </r>
       <r>   19.0943    0.0000 </r>
       <r>   19.1570    0.0000 </r>
       <r>   22.0948    0.0000 </r>
       <r>   23.1752    0.0000 </r>
       <r>   25.2620    0.0000 </r>
       <r>   26.0939    0.0000 </r>
       <r>   27.2078    0.0000 </r>
       <r>   29.6476    0.0000 </r>
       <r>   31.4853    0.0000 </r>
       <r>   31.8309    0.0000 </r>
       <r>   31.8625    0.0000 </r>
       <r>   33.4942    0.0000 </r>
       <r>   34.4123    0.0000 </r>
      </set>
      <set comment="kpoint 32">
       <r> -105.4658    1.0000 </r>
       <r>  -63.1605    1.0000 </r>
       <r>  -62.9498    1.0000 </r>
       <r>  -62.9498    1.0000 </r>
       <r>  -15.2587    1.0000 </r>
       <r>  -13.1089    1.0000 </r>
       <r>   -2.5118    1.0000 </r>
       <r>    1.7323    1.0000 </r>
       <r>    2.0128    1.0000 </r>
       <r>    2.0128    1.0000 </r>
       <r>    2.0695    1.0000 </r>
       <r>    3.1526    1.0000 </r>
       <r>    3.1526    1.0000 </r>
       <r>    4.0305    1.0000 </r>
       <r>    4.0305    1.0000 </r>
       <r>    4.8413    1.0000 </r>
       <r>    4.8413    1.0000 </r>
       <r>    7.8936    0.0000 </r>
       <r>   11.8412    0.0000 </r>
       <r>   13.0799    0.0000 </r>
       <r>   17.6246    0.0000 </r>
       <r>   19.6663    0.0000 </r>
       <r>   19.6645    0.0000 </r>
       <r>   23.0950    0.0000 </r>
       <r>   25.6786    0.0000 </r>
       <r>   25.4386    0.0000 </r>
       <r>   27.2158    0.0000 </r>
       <r>   27.2162    0.0000 </r>
       <r>   27.3268    0.0000 </r>
       <r>   30.0213    0.0000 </r>
       <r>   30.4353    0.0000 </r>
       <r>   30.4382    0.0000 </r>
       <r>   19.1336    0.0000 </r>
       <r>   32.5726    0.0000 </r>
       <r>   23.2718    0.0000 </r>
       <r>   22.7269    0.0000 </r>
      </set>
      <set comment="kpoint 33">
       <r> -105.4656    1.0000 </r>
       <r>  -63.1601    1.0000 </r>
       <r>  -62.9515    1.0000 </r>
       <r>  -62.9501    1.0000 </r>
       <r>  -15.1294    1.0000 </r>
       <r>  -13.0704    1.0000 </r>
       <r>   -2.3359    1.0000 </r>
       <r>    1.0794    1.0000 </r>
       <r>    1.8924    1.0000 </r>
       <r>    1.8961    1.0000 </r>
       <r>    2.3196    1.0000 </r>
       <r>    2.8322    1.0000 </r>
       <r>    3.1291    1.0000 </r>
       <r>    3.9929    1.0000 </r>
       <r>    4.1044    1.0000 </r>
       <r>    4.8020    1.0000 </r>
       <r>    4.8145    1.0000 </r>
       <r>    8.1534    0.0000 </r>
       <r>   12.1694    0.0000 </r>
       <r>   13.4339    0.0000 </r>
       <r>   17.6185    0.0000 </r>
       <r>   18.8970    0.0000 </r>
       <r>   19.4943    0.0000 </r>
       <r>   17.7264    0.0000 </r>
       <r>   23.5052    0.0000 </r>
       <r>   25.0227    0.0000 </r>
       <r>   25.5510    0.0000 </r>
       <r>   27.3324    0.0000 </r>
       <r>   12.1803    0.0000 </r>
       <r>   27.9168    0.0000 </r>
       <r>   28.6384    0.0000 </r>
       <r>   29.3324    0.0000 </r>
       <r>   29.8488    0.0000 </r>
       <r>   16.8147    0.0000 </r>
       <r>   31.5595    0.0000 </r>
       <r>   33.0719    0.0000 </r>
      </set>
      <set comment="kpoint 34">
       <r> -105.4650    1.0000 </r>
       <r>  -63.1596    1.0000 </r>
       <r>  -62.9569    1.0000 </r>
       <r>  -62.9515    1.0000 </r>
       <r>  -14.7756    1.0000 </r>
       <r>  -12.9554    1.0000 </r>
       <r>   -1.9848    1.0000 </r>
       <r>   -0.0002    1.0000 </r>
       <r>    1.2754    1.0000 </r>
       <r>    1.6257    1.0000 </r>
       <r>    2.2799    1.0000 </r>
       <r>    2.8948    1.0000 </r>
       <r>    2.9997    1.0000 </r>
       <r>    3.9497    1.0000 </r>
       <r>    4.2981    1.0000 </r>
       <r>    4.6727    1.0000 </r>
       <r>    4.7420    1.0000 </r>
       <r>    8.4734    0.0000 </r>
       <r>   12.9625    0.0000 </r>
       <r>   14.4183    0.0000 </r>
       <r>   17.1356    0.0000 </r>
       <r>   17.6249    0.0000 </r>
       <r>   19.0647    0.0000 </r>
       <r>   19.0201    0.0000 </r>
       <r>   21.4853    0.0000 </r>
       <r>   23.0533    0.0000 </r>
       <r>   24.3546    0.0000 </r>
       <r>   25.5577    0.0000 </r>
       <r>   27.4399    0.0000 </r>
       <r>   12.9582    0.0000 </r>
       <r>   27.8192    0.0000 </r>
       <r>   28.8239    0.0000 </r>
       <r>   31.1967    0.0000 </r>
       <r>   31.8474    0.0000 </r>
       <r>   31.9340    0.0000 </r>
       <r>   34.4074    0.0000 </r>
      </set>
      <set comment="kpoint 35">
       <r> -105.4644    1.0000 </r>
       <r>  -63.1587    1.0000 </r>
       <r>  -62.9635    1.0000 </r>
[...]
       <r>  -13.2308    1.0000 </r>
       <r>   -1.2460    1.0000 </r>
       <r>    0.0046    1.0000 </r>
       <r>    1.8574    1.0000 </r>
       <r>    2.1557    1.0000 </r>
       <r>    2.1804    1.0000 </r>
       <r>    2.5330    1.0000 </r>
       <r>    2.6373    1.0000 </r>
       <r>    3.9902    1.0000 </r>
       <r>    4.1030    1.0000 </r>
       <r>    4.9289    1.0000 </r>
       <r>    5.0355    1.0000 </r>
       <r>    9.3399    0.0000 </r>
       <r>   10.9730    0.0000 </r>
       <r>   13.5291    0.0000 </r>
       <r>   17.9064    0.0000 </r>
       <r>   18.8624    0.0000 </r>
       <r>   19.8473    0.0000 </r>
       <r>   18.2979    0.0000 </r>
       <r>   22.3663    0.0000 </r>
       <r>   23.2284    0.0000 </r>
       <r>   24.1506    0.0000 </r>
       <r>   24.3919    0.0000 </r>
       <r>   27.4462    0.0000 </r>
       <r>   28.2735    0.0000 </r>
       <r>   28.9294    0.0000 </r>
       <r>   30.0699    0.0000 </r>
       <r>   30.2369    0.0000 </r>
       <r>   31.2944    0.0000 </r>
       <r>   32.2340    0.0000 </r>
       <r>   29.1569    0.0000 </r>
      </set>
      <set comment="kpoint 115">
       <r> -105.4652    1.0000 </r>
       <r>  -63.1594    1.0000 </r>
       <r>  -62.9550    1.0000 </r>
       <r>  -62.9510    1.0000 </r>
       <r>  -14.8045    1.0000 </r>
       <r>  -13.1367    1.0000 </r>
       <r>   -1.0757    1.0000 </r>
       <r>   -0.2761    1.0000 </r>
       <r>    1.3657    1.0000 </r>
       <r>    1.6041    1.0000 </r>
       <r>    2.1931    1.0000 </r>
       <r>    2.4058    1.0000 </r>
       <r>    2.7850    1.0000 </r>
       <r>    3.9152    1.0000 </r>
       <r>    4.2583    1.0000 </r>
       <r>    4.8010    1.0000 </r>
       <r>    4.9835    1.0000 </r>
       <r>    9.1965    0.0000 </r>
       <r>   11.8574    0.0000 </r>
       <r>   14.3461    0.0000 </r>
       <r>   17.2624    0.0000 </r>
       <r>   18.3301    0.0000 </r>
       <r>   18.9133    0.0000 </r>
       <r>   21.6825    0.0000 </r>
       <r>   22.6585    0.0000 </r>
       <r>   23.3103    0.0000 </r>
       <r>   26.5445    0.0000 </r>
       <r>   26.8010    0.0000 </r>
       <r>   28.7224    0.0000 </r>
       <r>   29.9582    0.0000 </r>
       <r>   30.7155    0.0000 </r>
       <r>   31.7537    0.0000 </r>
       <r>   32.3345    0.0000 </r>
       <r>   32.7494    0.0000 </r>
       <r>   30.7040    0.0000 </r>
       <r>   33.8322    0.0000 </r>
      </set>
      <set comment="kpoint 116">
       <r> -105.4657    1.0000 </r>
       <r>  -63.1599    1.0000 </r>
       <r>  -62.9493    1.0000 </r>
       <r>  -62.9493    1.0000 </r>
       <r>  -15.1621    1.0000 </r>
       <r>  -13.2877    1.0000 </r>
       <r>   -1.3028    1.0000 </r>
       <r>    0.0623    1.0000 </r>
       <r>    2.0820    1.0000 </r>
       <r>    2.3127    1.0000 </r>
       <r>    2.3127    1.0000 </r>
       <r>    2.6706    1.0000 </r>
       <r>    2.6706    1.0000 </r>
       <r>    4.0311    1.0000 </r>
       <r>    4.0311    1.0000 </r>
       <r>    5.0462    1.0000 </r>
       <r>    5.0462    1.0000 </r>
       <r>    9.4447    0.0000 </r>
       <r>   10.3913    0.0000 </r>
       <r>   13.0566    0.0000 </r>
       <r>   18.1128    0.0000 </r>
       <r>   19.4704    0.0000 </r>
       <r>   18.2336    0.0000 </r>
       <r>   20.6508    0.0000 </r>
       <r>   21.5902    0.0000 </r>
       <r>   13.6523    0.0000 </r>
       <r>   25.2684    0.0000 </r>
       <r>   25.0610    0.0000 </r>
       <r>   25.7878    0.0000 </r>
       <r>   26.2804    0.0000 </r>
       <r>   28.2772    0.0000 </r>
       <r>   28.2772    0.0000 </r>
       <r>   29.0501    0.0000 </r>
       <r>   29.0501    0.0000 </r>
       <r>   30.2145    0.0000 </r>
       <r>   31.5921    0.0000 </r>
      </set>
     </set>
    </set>
   </array>
  </eigenvalues>
  <separator name="orbital magnetization" >
   <v name="MAGDIPOLOUT">      0.00000000      0.00000000      0.00000000</v>
  </separator>
  <dos>
   <i name="efermi">      6.73336947 </i>
   <total>
    <array>
     <dimension dim="1">gridpoints</dimension>
     <dimension dim="2">spin</dimension>
     <field>energy</field>
     <field>total</field>
     <field>integrated</field>
     <set>
      <set comment="spin 1">
       <r>  -113.7087     0.0000     0.0000 </r>
       <r>  -113.1042     0.0000     0.0000 </r>
       <r>  -112.4997     0.0000     0.0000 </r>
       <r>  -111.8952     0.0000     0.0000 </r>
       <r>  -111.2908     0.0000     0.0000 </r>
       <r>  -110.6863     0.0000     0.0000 </r>
       <r>  -110.0818     0.0000     0.0000 </r>
       <r>  -109.4773     0.0000     0.0000 </r>
       <r>  -108.8728     0.0000     0.0000 </r>
       <r>  -108.2684     0.0000     0.0000 </r>
       <r>  -107.6639     0.0000     0.0000 </r>
       <r>  -107.0594     0.0000     0.0000 </r>
       <r>  -106.4549     0.0000     0.0000 </r>
       <r>  -105.8505     0.0104     0.0063 </r>
       <r>  -105.2460     3.0949     1.8771 </r>
       <r>  -104.6415     0.2033     2.0000 </r>
       <r>  -104.0370     0.0000     2.0000 </r>
       <r>  -103.4326     0.0000     2.0000 </r>
       <r>  -102.8281     0.0000     2.0000 </r>
       <r>  -102.2236     0.0000     2.0000 </r>
       <r>  -101.6191     0.0000     2.0000 </r>
       <r>  -101.0146     0.0000     2.0000 </r>
       <r>  -100.4102     0.0000     2.0000 </r>
       <r>   -99.8057     0.0000     2.0000 </r>
       <r>   -99.2012     0.0000     2.0000 </r>
       <r>   -98.5967     0.0000     2.0000 </r>
       <r>   -97.9923     0.0000     2.0000 </r>
       <r>   -97.3878     0.0000     2.0000 </r>
       <r>   -96.7833     0.0000     2.0000 </r>
       <r>   -96.1788     0.0000     2.0000 </r>
       <r>   -95.5744     0.0000     2.0000 </r>
       <r>   -94.9699     0.0000     2.0000 </r>
       <r>   -94.3654     0.0000     2.0000 </r>
       <r>   -93.7609     0.0000     2.0000 </r>
       <r>   -93.1564     0.0000     2.0000 </r>
       <r>   -92.5520     0.0000     2.0000 </r>
       <r>   -91.9475     0.0000     2.0000 </r>
       <r>   -91.3430     0.0000     2.0000 </r>
       <r>   -90.7385     0.0000     2.0000 </r>
       <r>   -90.1341     0.0000     2.0000 </r>
       <r>   -89.5296     0.0000     2.0000 </r>
       <r>   -88.9251     0.0000     2.0000 </r>
       <r>   -88.3206     0.0000     2.0000 </r>
       <r>   -87.7162     0.0000     2.0000 </r>
       <r>   -87.1117     0.0000     2.0000 </r>
       <r>   -86.5072     0.0000     2.0000 </r>
       <r>   -85.9027     0.0000     2.0000 </r>
       <r>   -85.2982     0.0000     2.0000 </r>
       <r>   -84.6938     0.0000     2.0000 </r>
       <r>   -84.0893     0.0000     2.0000 </r>
       <r>   -83.4848     0.0000     2.0000 </r>
       <r>   -82.8803     0.0000     2.0000 </r>
       <r>   -82.2759     0.0000     2.0000 </r>
       <r>   -81.6714     0.0000     2.0000 </r>
       <r>   -81.0669     0.0000     2.0000 </r>
       <r>   -80.4624     0.0000     2.0000 </r>
       <r>   -79.8580     0.0000     2.0000 </r>
       <r>   -79.2535     0.0000     2.0000 </r>
       <r>   -78.6490     0.0000     2.0000 </r>
       <r>   -78.0445     0.0000     2.0000 </r>
       <r>   -77.4400     0.0000     2.0000 </r>
       <r>   -76.8356     0.0000     2.0000 </r>
       <r>   -76.2311     0.0000     2.0000 </r>
       <r>   -75.6266     0.0000     2.0000 </r>
       <r>   -75.0221     0.0000     2.0000 </r>
       <r>   -74.4177     0.0000     2.0000 </r>
       <r>   -73.8132     0.0000     2.0000 </r>
       <r>   -73.2087     0.0000     2.0000 </r>
       <r>   -72.6042     0.0000     2.0000 </r>
       <r>   -71.9998     0.0000     2.0000 </r>
       <r>   -71.3953     0.0000     2.0000 </r>
       <r>   -70.7908     0.0000     2.0000 </r>
       <r>   -70.1863     0.0000     2.0000 </r>
       <r>   -69.5818     0.0000     2.0000 </r>
       <r>   -68.9774     0.0000     2.0000 </r>
       <r>   -68.3729     0.0000     2.0000 </r>
       <r>   -67.7684     0.0000     2.0000 </r>
       <r>   -67.1639     0.0000     2.0000 </r>
       <r>   -66.5595     0.0000     2.0000 </r>
       <r>   -65.9550     0.0000     2.0000 </r>
       <r>   -65.3505     0.0000     2.0000 </r>
       <r>   -64.7460     0.0000     2.0000 </r>
       <r>   -64.1416     0.0000     2.0000 </r>
       <r>   -63.5371     0.0124     2.0075 </r>
       <r>   -62.9326     6.9222     6.1918 </r>
       <r>   -62.3281     2.9913     8.0000 </r>
       <r>   -61.7236     0.0000     8.0000 </r>
       <r>   -61.1192     0.0000     8.0000 </r>
       <r>   -60.5147     0.0000     8.0000 </r>
       <r>   -59.9102     0.0000     8.0000 </r>
       <r>   -59.3057     0.0000     8.0000 </r>
       <r>   -58.7013     0.0000     8.0000 </r>
       <r>   -58.0968     0.0000     8.0000 </r>
       <r>   -57.4923     0.0000     8.0000 </r>
       <r>   -56.8878     0.0000     8.0000 </r>
       <r>   -56.2834     0.0000     8.0000 </r>
       <r>   -55.6789     0.0000     8.0000 </r>
       <r>   -55.0744     0.0000     8.0000 </r>
       <r>   -54.4699     0.0000     8.0000 </r>
       <r>   -53.8654     0.0000     8.0000 </r>
       <r>   -53.2610     0.0000     8.0000 </r>
       <r>   -52.6565     0.0000     8.0000 </r>
       <r>   -52.0520     0.0000     8.0000 </r>
       <r>   -51.4475     0.0000     8.0000 </r>
       <r>   -50.8431     0.0000     8.0000 </r>
       <r>   -50.2386     0.0000     8.0000 </r>
       <r>   -49.6341     0.0000     8.0000 </r>
       <r>   -49.0296     0.0000     8.0000 </r>
       <r>   -48.4252     0.0000     8.0000 </r>
       <r>   -47.8207     0.0000     8.0000 </r>
       <r>   -47.2162     0.0000     8.0000 </r>
       <r>   -46.6117     0.0000     8.0000 </r>
       <r>   -46.0072     0.0000     8.0000 </r>
       <r>   -45.4028     0.0000     8.0000 </r>
       <r>   -44.7983     0.0000     8.0000 </r>
       <r>   -44.1938     0.0000     8.0000 </r>
       <r>   -43.5893     0.0000     8.0000 </r>
       <r>   -42.9849     0.0000     8.0000 </r>
       <r>   -42.3804     0.0000     8.0000 </r>
       <r>   -41.7759     0.0000     8.0000 </r>
       <r>   -41.1714     0.0000     8.0000 </r>
       <r>   -40.5669     0.0000     8.0000 </r>
       <r>   -39.9625     0.0000     8.0000 </r>
       <r>   -39.3580     0.0000     8.0000 </r>
       <r>   -38.7535     0.0000     8.0000 </r>
       <r>   -38.1490     0.0000     8.0000 </r>
       <r>   -37.5446     0.0000     8.0000 </r>
       <r>   -36.9401     0.0000     8.0000 </r>
       <r>   -36.3356     0.0000     8.0000 </r>
       <r>   -35.7311     0.0000     8.0000 </r>
       <r>   -35.1267     0.0000     8.0000 </r>
       <r>   -34.5222     0.0000     8.0000 </r>
       <r>   -33.9177     0.0000     8.0000 </r>
       <r>   -33.3132     0.0000     8.0000 </r>
       <r>   -32.7087     0.0000     8.0000 </r>
       <r>   -32.1043     0.0000     8.0000 </r>
       <r>   -31.4998     0.0000     8.0000 </r>
       <r>   -30.8953     0.0000     8.0000 </r>
       <r>   -30.2908     0.0000     8.0000 </r>
       <r>   -29.6864     0.0000     8.0000 </r>
       <r>   -29.0819     0.0000     8.0000 </r>
       <r>   -28.4774     0.0000     8.0000 </r>
       <r>   -27.8729     0.0000     8.0000 </r>
       <r>   -27.2685     0.0000     8.0000 </r>
       <r>   -26.6640     0.0000     8.0000 </r>
       <r>   -26.0595     0.0000     8.0000 </r>
       <r>   -25.4550     0.0000     8.0000 </r>
       <r>   -24.8505     0.0000     8.0000 </r>
       <r>   -24.2461     0.0000     8.0000 </r>
       <r>   -23.6416     0.0000     8.0000 </r>
       <r>   -23.0371     0.0000     8.0000 </r>
       <r>   -22.4326     0.0000     8.0000 </r>
       <r>   -21.8282     0.0000     8.0000 </r>
       <r>   -21.2237     0.0000     8.0000 </r>
       <r>   -20.6192     0.0000     8.0000 </r>
       <r>   -20.0147     0.0000     8.0000 </r>
       <r>   -19.4103     0.0000     8.0000 </r>
       <r>   -18.8058     0.0000     8.0000 </r>
       <r>   -18.2013     0.0000     8.0000 </r>
       <r>   -17.5968     0.0000     8.0000 </r>
       <r>   -16.9923     0.0000     8.0000 </r>
       <r>   -16.3879     0.0000     8.0000 </r>
       <r>   -15.7834     0.0000     8.0000 </r>
       <r>   -15.1789     0.0787     8.0476 </r>
       <r>   -14.5744     0.5911     8.4049 </r>
       <r>   -13.9700     0.8064     8.8924 </r>
       <r>   -13.3655     1.3533     9.7104 </r>
       <r>   -12.7610     3.0235    11.5380 </r>
       <r>   -12.1565     0.7642    12.0000 </r>
       <r>   -11.5521     0.0000    12.0000 </r>
       <r>   -10.9476     0.0000    12.0000 </r>
       <r>   -10.3431     0.0000    12.0000 </r>
       <r>    -9.7386     0.0000    12.0000 </r>
       <r>    -9.1341     0.0000    12.0000 </r>
       <r>    -8.5297     0.0000    12.0000 </r>
       <r>    -7.9252     0.0000    12.0000 </r>
       <r>    -7.3207     0.0000    12.0000 </r>
       <r>    -6.7162     0.0000    12.0000 </r>
       <r>    -6.1118     0.0000    12.0000 </r>
       <r>    -5.5073     0.0000    12.0000 </r>
       <r>    -4.9028     0.0000    12.0000 </r>
       <r>    -4.2983     0.0000    12.0000 </r>
       <r>    -3.6939     0.0000    12.0000 </r>
       <r>    -3.0894     0.0000    12.0000 </r>
       <r>    -2.4849     0.0766    12.0463 </r>
       <r>    -1.8804     1.4814    12.9417 </r>
       <r>    -1.2759     2.8129    14.6421 </r>
       <r>    -0.6715     1.5419    15.5741 </r>
       <r>    -0.0670     1.1527    16.2709 </r>
       <r>     0.5375     1.8289    17.3764 </r>
       <r>     1.1420     2.1320    18.6651 </r>
       <r>     1.7464     3.2810    20.6484 </r>
       <r>     2.3509     3.6442    22.8513 </r>
       <r>     2.9554     2.1510    24.1515 </r>
       <r>     3.5599     2.1880    25.4741 </r>
       <r>     4.1643     2.9994    27.2871 </r>
       <r>     4.7688     6.8614    31.4346 </r>
       <r>     5.3733     2.9957    33.2455 </r>
       <r>     5.9778     1.2125    33.9784 </r>
       <r>     6.5823     0.0357    34.0000 </r>
       <r>     7.1867     0.0000    34.0000 </r>
       <r>     7.7912     0.0065    34.0039 </r>
       <r>     8.3957     0.3256    34.2007 </r>
       <r>     9.0002     1.8113    35.2956 </r>
       <r>     9.6046     0.8440    35.8058 </r>
       <r>    10.2091     0.1682    35.9075 </r>
       <r>    10.8136     0.1651    36.0073 </r>
       <r>    11.4181     0.0768    36.0538 </r>
       <r>    12.0225     0.1858    36.1661 </r>
       <r>    12.6270     0.9304    36.7285 </r>
       <r>    13.2315     0.8374    37.2347 </r>
       <r>    13.8360     1.6591    38.2375 </r>
       <r>    14.4405     1.6213    39.2176 </r>
       <r>    15.0449     1.4507    40.0945 </r>
       <r>    15.6494     1.4761    40.9867 </r>
       <r>    16.2539     1.4850    41.8844 </r>
       <r>    16.8584     1.9411    43.0577 </r>
       <r>    17.4628     2.9336    44.8310 </r>
       <r>    18.0673     3.2702    46.8078 </r>
       <r>    18.6718     2.4758    48.3044 </r>
       <r>    19.2763     2.0685    49.5548 </r>
       <r>    19.8807     0.2835    49.7261 </r>
       <r>    20.4852     0.1763    49.8327 </r>
       <r>    21.0897     0.0938    49.8893 </r>
       <r>    21.6942     1.2039    50.6171 </r>
       <r>    22.2987     0.9538    51.1936 </r>
       <r>    22.9031     1.6253    52.1761 </r>
       <r>    23.5076     1.9733    53.3689 </r>
       <r>    24.1121     1.4124    54.2226 </r>
       <r>    24.7166     1.2806    54.9967 </r>
       <r>    25.3210     1.3154    55.7918 </r>
       <r>    25.9255     1.3306    56.5961 </r>
       <r>    26.5300     1.0981    57.2599 </r>
       <r>    27.1345     1.4594    58.1421 </r>
       <r>    27.7389     1.5628    59.0867 </r>
       <r>    28.3434     1.1401    59.7759 </r>
       <r>    28.9479     1.1417    60.4661 </r>
       <r>    29.5524     1.1150    61.1400 </r>
       <r>    30.1569     1.5624    62.0845 </r>
       <r>    30.7613     1.5006    62.9915 </r>
       <r>    31.3658     1.5844    63.9492 </r>
       <r>    31.9703     2.0881    65.2114 </r>
       <r>    32.5748     1.6097    66.1845 </r>
       <r>    33.1792     2.2792    67.5622 </r>
       <r>    33.7837     2.3763    68.9986 </r>
       <r>    34.3882     1.5720    69.9488 </r>
       <r>    34.9927     0.9448    70.5199 </r>
       <r>    35.5971     1.2738    71.2899 </r>
       <r>    36.2016     0.6448    71.6797 </r>
       <r>    36.8061     0.0106    71.6861 </r>
       <r>    37.4106     0.0032    71.6880 </r>
       <r>    38.0151     0.0000    71.6880 </r>
       <r>    38.6195     0.0001    71.6881 </r>
       <r>    39.2240     0.0205    71.7004 </r>
       <r>    39.8285     0.0410    71.7252 </r>
       <r>    40.4330     0.0445    71.7521 </r>
       <r>    41.0374     0.0922    71.8078 </r>
       <r>    41.6419     0.0003    71.8080 </r>
       <r>    42.2464     0.0132    71.8160 </r>
       <r>    42.8509     0.0854    71.8676 </r>
       <r>    43.4553     0.0255    71.8831 </r>
       <r>    44.0598     0.0326    71.9028 </r>
       <r>    44.6643     0.0079    71.9076 </r>
       <r>    45.2688     0.0338    71.9280 </r>
       <r>    45.8733     0.0187    71.9393 </r>
       <r>    46.4777     0.0011    71.9400 </r>
       <r>    47.0822     0.0183    71.9511 </r>
       <r>    47.6867     0.0214    71.9640 </r>
       <r>    48.2912     0.0296    71.9819 </r>
       <r>    48.8956     0.0101    71.9880 </r>
       <r>    49.5001     0.0000    71.9880 </r>
       <r>    50.1046     0.0000    71.9880 </r>
       <r>    50.7091     0.0000    71.9880 </r>
       <r>    51.3135     0.0000    71.9880 </r>
       <r>    51.9180     0.0000    71.9880 </r>
       <r>    52.5225     0.0000    71.9880 </r>
       <r>    53.1270     0.0000    71.9880 </r>
       <r>    53.7315     0.0000    71.9880 </r>
       <r>    54.3359     0.0000    71.9880 </r>
       <r>    54.9404     0.0000    71.9880 </r>
       <r>    55.5449     0.0000    71.9880 </r>
       <r>    56.1494     0.0000    71.9880 </r>
       <r>    56.7538     0.0000    71.9880 </r>
       <r>    57.3583     0.0000    71.9880 </r>
       <r>    57.9628     0.0000    71.9880 </r>
       <r>    58.5673     0.0000    71.9880 </r>
       <r>    59.1717     0.0012    71.9887 </r>
       <r>    59.7762     0.0186    72.0000 </r>
       <r>    60.3807     0.0001    72.0000 </r>
       <r>    60.9852     0.0000    72.0000 </r>
       <r>    61.5897     0.0000    72.0000 </r>
       <r>    62.1941     0.0000    72.0000 </r>
       <r>    62.7986     0.0000    72.0000 </r>
       <r>    63.4031     0.0000    72.0000 </r>
       <r>    64.0076     0.0000    72.0000 </r>
       <r>    64.6120     0.0000    72.0000 </r>
       <r>    65.2165     0.0000    72.0000 </r>
       <r>    65.8210     0.0000    72.0000 </r>
       <r>    66.4255     0.0000    72.0000 </r>
       <r>    67.0299     0.0000    72.0000 </r>
       <r>    67.6344     0.0000    72.0000 </r>
      </set>
     </set>
    </array>
   </total>
  </dos>
 </calculation>
 <structure name="finalpos" >
  <crystal>
   <varray name="basis" >
    <v>       1.41997479       0.81982283       5.62811517 </v>
    <v>      -1.41997479       0.81982283       5.62811517 </v>
    <v>      -0.00000000      -1.63964565       5.62811517 </v>
   </varray>
   <i name="volume">     39.31107016 </i>
   <varray name="rec_basis" >
    <v>       0.35211893       0.20329596       0.05922646 </v>
    <v>      -0.35211893       0.20329596       0.05922646 </v>
    <v>       0.00000000      -0.40659192       0.05922646 </v>
   </varray>
  </crystal>
  <varray name="positions" >
   <v>       0.00000000       0.00000000       0.00000000 </v>
   <v>       0.50000000       0.50000000       0.50000000 </v>
   <v>       0.10956715       0.10956715       0.10956715 </v>
   <v>       0.89043285       0.89043285       0.89043285 </v>
  </varray>
 </structure>
</modeling>
