
:LABEL1: Calculations in /home/stevezhang/work/CuMO2/convergence/CuAlO2/rkmax_7-scfk_4c/CuAlO2
:LABEL2: on MZ at Mon Jun 21 18:49:23 CST 2021
:LABEL3: using WIEN2k_14.2 (Release 15/10/2014) in /home/stevezhang/wien2k/v14.2
:LABEL4: using the command: run_lapw -ec 0.000000001


            ---------
:ITE001:  1. ITERATION
            ---------

:NATO :    3 INDEPENDENT AND    4 TOTAL ATOMS IN UNITCELL
       SUBSTANCE: CuAlO2 BenkoF84                                             

       LATTICE                      = R   
:POT  : POTENTIAL OPTION EX_PBE EC_PBE VX_PBE VC_PBE
:LAT  : LATTICE CONSTANTS=  5.40508  5.40508 32.03482
:VOL  : UNIT CELL VOLUME =     270.16967
       MODE OF CALCULATION IS       = RELA
       NON-SPINPOLARIZED CALCULATION
:IFFT  : FFT-parameters:   90   90   90 Factor: 2.00
       ATOMNUMBER=  1 Cu1        VCOUL-ZERO =  0.40717E+00
:EFG001:                        EFG         =     0.13808   *10**21  V / m**2
                               V20  TOT/SRF=     0.11958     0.33259
                               V22  TOT/SRF=     0.00000     0.00000
                               V22M TOT/SRF=     0.00000     0.00000
                               V21  TOT/SRF=     0.00000     0.00000
                               V21M TOT/SRF=     0.00000     0.00000

             -0.06904    0.00000    0.00000       -0.06904    0.00000    0.00000
              0.00000   -0.06904    0.00000        0.00000   -0.06904    0.00000
              0.00000    0.00000    0.13808        0.00000    0.00000    0.13808

         MAIN DIRECTIONS OF THE EFG   1.0000  0.0000  0.0000
                                      0.0000  1.0000  0.0000
                                      0.0000  0.0000  1.0000
:ANG001:  ANGLE WITH OLD X-AXIS =         0.0

:ETA001:                         ASYMM. ETA =     0.00000


       ATOMNUMBER=  2 Al1        VCOUL-ZERO = -0.82618E-01
:EFG002:                        EFG         =    -0.14362   *10**21  V / m**2
                               V20  TOT/SRF=    -0.12438    -0.19646
                               V22  TOT/SRF=     0.00000     0.00000
                               V22M TOT/SRF=     0.00000     0.00000
                               V21  TOT/SRF=     0.00000     0.00000
                               V21M TOT/SRF=     0.00000     0.00000

              0.07181    0.00000    0.00000        0.07181    0.00000    0.00000
              0.00000    0.07181    0.00000        0.00000    0.07181    0.00000
              0.00000    0.00000   -0.14362        0.00000    0.00000   -0.14362

         MAIN DIRECTIONS OF THE EFG   1.0000  0.0000  0.0000
                                      0.0000  1.0000  0.0000
                                      0.0000  0.0000  1.0000
:ANG002:  ANGLE WITH OLD X-AXIS =         0.0

:ETA002:                         ASYMM. ETA =     0.00000


       ATOMNUMBER=  3 O 1        VCOUL-ZERO =  0.17148E-01
:EFG003:                        EFG         =     0.24211   *10**21  V / m**2
                               V20  TOT/SRF=     0.20967     0.27373
                               V22  TOT/SRF=     0.00000     0.00000
                               V22M TOT/SRF=     0.00000     0.00000
                               V21  TOT/SRF=     0.00000     0.00000
                               V21M TOT/SRF=     0.00000     0.00000

             -0.12105    0.00000    0.00000       -0.12105    0.00000    0.00000
              0.00000   -0.12105    0.00000        0.00000   -0.12105    0.00000
              0.00000    0.00000    0.24211        0.00000    0.00000    0.24211

         MAIN DIRECTIONS OF THE EFG   1.0000  0.0000  0.0000
                                      0.0000  1.0000  0.0000
                                      0.0000  0.0000  1.0000
:ANG003:  ANGLE WITH OLD X-AXIS =         0.0

:ETA003:                         ASYMM. ETA =     0.00000


     HELLMANN-FEYNMAN-FORCE IN mRy/a.u. = |F|  Fx       Fy             Fz
:FHF001:   1.ATOM      0.000000000      0.000000000      0.000000000      0.000000000

     HELLMANN-FEYNMAN-FORCE IN mRy/a.u. = |F|  Fx       Fy             Fz
:FHF002:   2.ATOM      0.000000000      0.000000000      0.000000000      0.000000000

     HELLMANN-FEYNMAN-FORCE IN mRy/a.u. = |F|  Fx       Fy             Fz
:FHF003:   3.ATOM    633.342468613      0.000000000      0.000000000   -633.342468613

:FIT001: LUSE= 13 SIGMA OF V-XC FIT FOR ATOM  1  0.7569698E-02
:FIT001: LUSE= 13 SIGMA OF V-XC FIT FOR ATOM  1  0.7569698E-02
:FIT002: LUSE= 13 SIGMA OF V-XC FIT FOR ATOM  2  0.4811514E-02
:FIT002: LUSE= 13 SIGMA OF V-XC FIT FOR ATOM  2  0.4811514E-02
:FIT003: LUSE= 13 SIGMA OF V-XC FIT FOR ATOM  3  0.4855342E-04
:FIT003: LUSE= 13 SIGMA OF V-XC FIT FOR ATOM  3  0.4855342E-04
:DEN  : DENSITY INTEGRAL  =         -1791.58510637   (Ry)
       ELS_POTENTIAL_AT Z=0 and Z=0.5:   0.00000   0.00000
       ELS_POTENTIAL_AT Y=0 and Y=0.5:   0.00000   0.00000
:VZERO:v0,v0c,v0x  -0.83019   0.00000  -0.83019 v5,v5c,v5x  -0.83019   0.00000  -0.83019
:VZERY:v0,v0c,v0x  -0.83019   0.00000  -0.83019 v5,v5c,v5x  -0.83019   0.00000  -0.83019
:VZERX:v0,v0c,v0x  -2.47368  -1.25394  -1.21974 v5,v5c,v5x  -0.01023   0.44426  -0.45449

          ATOMIC SPHERE DEPENDENT PARAMETERS FOR ATOM  Cu1       
:e__0001: OVERALL ENERGY PARAMETER IS    0.3000
          OVERALL BASIS SET ON ATOM IS LAPW
:E1_0001: E( 1)=    0.3000
             APW+lo
:E1_0001: E( 1)=   -4.6485   E(BOTTOM)=   -4.714   E(TOP)=   -4.583  1  2   173
             LOCAL ORBITAL
:E2_0001: E( 2)=    0.2880   E(BOTTOM)=   -0.031   E(TOP)=    0.607  0  1   136
             APW+lo
:E0_0001: E( 0)=    0.3000
             APW+lo

          ATOMIC SPHERE DEPENDENT PARAMETERS FOR ATOM  Al1       
:e__0002: OVERALL ENERGY PARAMETER IS    0.3000
          OVERALL BASIS SET ON ATOM IS LAPW
:E1_0002: E( 1)=    0.3000
             APW+lo
:E1_0002: E( 1)=   -4.1255   E(BOTTOM)=   -4.231   E(TOP)=   -4.020  0  1   164
             LOCAL ORBITAL
:E0_0002: E( 0)=    0.3000
             APW+lo

          ATOMIC SPHERE DEPENDENT PARAMETERS FOR ATOM  O 1       
:e__0003: OVERALL ENERGY PARAMETER IS    0.3000
          OVERALL BASIS SET ON ATOM IS LAPW
:E0_0003: E( 0)=   -1.5500   E(BOTTOM)=   -2.792   E(TOP)= -200.000  1 -1   241
             APW+lo
:E0_0003: E( 0)=    0.7000
             LOCAL ORBITAL
:E1_0003: E( 1)=    0.3000
             APW+lo

       K=   0.00000   0.00000   0.00000            1
:RKM  : MATRIX SIZE   616LOs:  29  RKM= 6.98  WEIGHT= 1.00  PGR:    
       EIGENVALUES ARE:
:EIG00001:      -4.6407281   -4.6308488   -4.6308488   -4.1004685   -4.1004685
:EIG00006:      -4.0959343   -1.1956435   -1.0573884   -0.2098135    0.0635482
:EIG00011:       0.0635482    0.0676218    0.1312135    0.1312135    0.2219215
:EIG00016:       0.3272277    0.3272277    0.3616737    0.3616737    0.5748387
:EIG00021:       0.9045545    0.9512160    1.3464051    1.4893936    1.4893936
:EIG00026:       1.5575699    1.5866218    1.5866218    1.9074567    1.9668066
:EIG00031:       1.9668066
       ********************************************************

:KPT   :      NUMBER OF K-POINTS:    13
       Insulator, EF-inconsistency corrected
:GAP  :    0.1403 Ry =     1.908 eV   (provided you have a proper k-mesh)
         Bandranges (emin - emax) and occupancy:
:BAN00009:   9   -0.209813   -0.132325  2.00000000
:BAN00010:  10   -0.169938    0.063548  2.00000000
:BAN00011:  11   -0.095578    0.074605  2.00000000
:BAN00012:  12    0.005552    0.074605  2.00000000
:BAN00013:  13    0.029184    0.131213  2.00000000
:BAN00014:  14    0.048657    0.131213  2.00000000
:BAN00015:  15    0.221921    0.314304  2.00000000
:BAN00016:  16    0.321366    0.337995  2.00000000
:BAN00017:  17    0.327228    0.361879  2.00000000
:BAN00018:  18    0.346093    0.376278  2.00000000
:BAN00019:  19    0.357045    0.434515  2.00000000
:BAN00020:  20    0.574839    0.755352  0.00000000
:BAN00021:  21    0.769084    1.093662  0.00000000
:BAN00022:  22    0.951216    1.126871  0.00000000
:BAN00023:  23    1.109878    1.346405  0.00000000
:BAN00024:  24    1.223767    1.491844  0.00000000
        Energy to separate low and high energystates:   -0.25981


:NOE  : NUMBER OF ELECTRONS          =  38.000

:FER  : F E R M I - ENERGY(TETRAH.M.)=   0.4345150943
:GMA  : POTENTIAL AND CHARGE CUT-OFF  12.00 Ry**.5




:POS001: ATOM   -1 X,Y,Z = 0.00000 0.00000 0.00000  MULT= 1  ZZ= 29.000  Cu1       

       LMMAX  7
       LM=   0 0  2 0  4 0  4 3  6 0  6 3  6 6

:CHA001: TOTAL VALENCE CHARGE INSIDE SPHERE   1 =  15.4451    (RMT=  2.0000 )
:PCS001: PARTIAL CHARGES SPHERE =  1 S,P,D,F,PZ,PXY, D-Z2,D-XY,X2Y2,D-XZ,YZ 
:QTL001: 0.2107 6.1185 9.0924 0.0173 2.0923 4.0262 0.0000 1.6657 3.6776 3.7491 0.0000 0.0000
        Q-s-low E-s-low   Q-p-low E-p-low   Q-d-low E-d-low   Q-f-low E-f-low
:EPL001:  0.0133 -1.0834    5.9995 -4.6253    0.0169 -1.0818    0.0027 -1.0845
        Q-s-hi  E-s-hi    Q-p-hi  E-p-hi    Q-d-hi  E-d-hi    Q-f-hi  E-f-hi 
:EPH001:  0.1974  0.1298    0.1191  0.0496    9.0756  0.3277    0.0146  0.0223
:VZZ001: EFG INSIDE SPHERE   1 =    -4.942790      UP TO R =   2.00000




:POS002: ATOM   -2 X,Y,Z = 0.50000 0.50000 0.50000  MULT= 1  ZZ= 13.000  Al1       

       LMMAX  7
       LM=   0 0  2 0  4 0  4 3  6 0  6 3  6 6

:CHA002: TOTAL VALENCE CHARGE INSIDE SPHERE   2 =   6.5279    (RMT=  1.8000 )
:PCS002: PARTIAL CHARGES SPHERE =  2 S,P,D,F,PZ,PXY, D-Z2,D-XY,X2Y2,D-XZ,YZ 
:QTL002: 0.1868 6.2052 0.1120 0.0194 2.0584 4.1468 0.0000 0.0082 0.0481 0.0557 0.0000 0.0000
        Q-s-low E-s-low   Q-p-low E-p-low   Q-d-low E-d-low   Q-f-low E-f-low
:EPL002:  0.0301 -1.1404    6.0062 -4.0809    0.0154 -1.0580    0.0030 -1.0781
        Q-s-hi  E-s-hi    Q-p-hi  E-p-hi    Q-d-hi  E-d-hi    Q-f-hi  E-f-hi 
:EPH002:  0.1566 -0.1210    0.1989 -0.0227    0.0966  0.0276    0.0164  0.0444
:VZZ002: EFG INSIDE SPHERE   2 =     0.964040      UP TO R =   1.80000




:POS003: ATOM   -3 X,Y,Z = 0.10979 0.10979 0.10979  MULT= 2  ZZ=  8.000  O 1       

       LMMAX 12
       LM=   0 0  1 0  2 0  3 0  3 3  4 0  4 3  5 0  5 3  6 0  6 3  6 6

:CHA003: TOTAL VALENCE CHARGE INSIDE SPHERE   3 =   4.9671    (RMT=  1.4000 )
:PCS003: PARTIAL CHARGES SPHERE =  3 S,P,D,F,PZ,PXY, D-Z2,D-XY,X2Y2,D-XZ,YZ 
:QTL003: 1.4249 3.5347 0.0065 0.0007 1.1532 2.3815 0.0000 0.0015 0.0009 0.0041 0.0000 0.0000
        Q-s-low E-s-low   Q-p-low E-p-low   Q-d-low E-d-low   Q-f-low E-f-low
:EPL003:  1.3831 -1.0828    0.0064 -1.2766    0.0002 -2.6620    0.0001 -2.4743
        Q-s-hi  E-s-hi    Q-p-hi  E-p-hi    Q-d-hi  E-d-hi    Q-f-hi  E-f-hi 
:EPH003:  0.0418 -0.0605    3.5283  0.0054    0.0063  0.1868    0.0006  0.2363
:VZZ003: EFG INSIDE SPHERE   3 =     2.619497      UP TO R =   1.40000

:CHA  : TOTAL VALENCE CHARGE INSIDE UNIT CELL =      38.000000

:SUM  : SUM OF EIGENVALUES =         -53.564278209


        1.ATOM      Cu1                   5 CORE STATES
:1S 001: 1S                -649.705732691 Ry
:2S 001: 2S                 -77.430237248 Ry
:2PP001: 2P*                -67.744370335 Ry
:2P 001: 2P                 -66.238448812 Ry
:3S 001: 3S                  -7.770292626 Ry

        2.ATOM      Al1                   2 CORE STATES
:1S 002: 1S                -110.024920271 Ry
:2S 002: 2S                  -6.930087119 Ry

        3.ATOM      O 1                   1 CORE STATES
       CORE-FORCE in mRy/a.u. = |F|      Fx             Fy             Fz
:FCO003:   3.ATOM    160.288446928      0.000000000      0.000000000    160.288446928

:1S 003: 1S                 -36.977013179 Ry
:CINT001 Core Integral Atom   1   11.998557
:CINT002 Core Integral Atom   2    3.995890
:CINT003 Core Integral Atom   3    1.999999

       DENSITY AT NUCLEUS
        JATOM        VALENCE       SEMI-CORE          CORE           TOTAL
:RTO001:   1        5.902130        0.000000    22630.787820    22636.689950
:RTO002:   2        2.337242        0.000000     1486.726621     1489.063862
:RTO003:   3       15.607622        0.000000      303.968862      319.576484
     
       CHARGES OF NEW CHARGE DENSITY
:NTO   : INTERSTITIAL CHARGE =     6.092903
:NTO001: CHARGE SPHERE  1    =    27.443629
:NTO002: CHARGE SPHERE  2    =    10.523782
:NTO003: CHARGE SPHERE  3    =     6.967054

:NEC01: NUCLEAR AND ELECTRONIC CHARGE     58.00000    57.99442
     
       CHARGES OF OLD CHARGE DENSITY
:OTO   : INTERSTITIAL CHARGE =     7.173275
:OTO001: CHARGE SPHERE  1    =    27.282985
:OTO002: CHARGE SPHERE  2    =    10.843492
:OTO003: CHARGE SPHERE  3    =     6.350577

:NEC02: NUCLEAR AND ELECTRONIC CHARGE     58.00000    58.00091
     
       CONVERGENCE TEST
:DTO001: DIFFERENCE IN SPHERE  1 =  0.5876131
:DTO002: DIFFERENCE IN SPHERE  2 =  0.2961649
:DTO003: DIFFERENCE IN SPHERE  3 =  0.7864615

:DIS  :  CHARGE DISTANCE       ( 0.7864615 for atom    3 spin 1)      0.6141752
:BIG check (qbig,qrms,qtot)    0.262D+00   0.457D+00   0.614D+00
 
******************************************************
* MULTISECANT MIXING VER6 RELEASE 6.0 OPTIONS        *
* Standard Mode with controls                        *
* Regularization       1.000E-06                     *
* Trust Region Control Active                        *
* Max Number of Memory Steps    8                    *
******************************************************
 
:PLANE:  INTERSTITIAL TOTAL      1.68238 DISTAN  2.193E+01 % 
:CHARG:  CLM CHARGE   /ATOM     54.20733 DISTAN  1.740E+00 % 
:REDuction and DMIX in Broyd:    0.7911    0.1582
:DIRM :  MEMORY  0/ 8 RESCALES   1.00
:MIX  :   PRATT  REGULARIZATION: 1.00E-06  GREED: 0.035
     
       CHARGES OF MIXED CHARGE DENSITY
:CTO   : INTERSTITIAL CHARGE =     7.134782
:CTO001: CHARGE SPHERE  1    =    27.288608
:CTO002: CHARGE SPHERE  2    =    10.832302
:CTO003: CHARGE SPHERE  3    =     6.372154

:NEC03: NUCLEAR AND ELECTRONIC CHARGE     58.00000    58.00000

PW CHANGE     H    K    L       Current     Change     Residue
:PTO001:      0    0    0  6.77309256E-02 -1.670E-04 -4.773E-03
:PTO002:     -1   -1   -1 -1.79837275E-02 -2.360E-04 -6.742E-03
:PTO003:     -2   -2   -2 -2.35099054E-03 -2.888E-04 -8.250E-03
:PTO004:     -1    0    0  1.09742943E-01  4.457E-04  1.273E-02
:PTO005:     -1   -1    0  6.53515144E-02 -3.143E-04 -8.979E-03
:PTO006:     -2   -1   -1 -5.23387005E-02 -1.071E-03 -3.060E-02
:PTO007:     -2   -2   -1 -6.42950525E-02 -7.937E-04 -2.268E-02
:PTO008:     -3   -3   -3  2.96209070E-02  1.462E-04  4.177E-03
:PTO009:     -3   -2   -2  1.80137129E-02 -1.844E-05 -5.270E-04
:PTO010:     -3   -3   -2  5.25672523E-02  1.031E-04  2.946E-03
:PTO011:     -1    0    1  4.60648094E-02 -4.302E-05 -1.229E-03
:PTO012:     -4   -4   -4 -2.27826053E-03 -1.268E-04 -3.624E-03

:ENE  : ********** TOTAL ENERGY IN Ry =        -4097.22251312

       TOTAL FORCE IN mRy/a.u. = |F|     Fx             Fy             Fz     with/without FOR in case.in2
:FOR001:   1.ATOM          0.000          0.000          0.000          0.000 partial forces
:FOR002:   2.ATOM          0.000          0.000          0.000          0.000 partial forces
:FOR003:   3.ATOM        473.054          0.000          0.000       -473.054 partial forces
       TOTAL FORCE WITH RESPECT TO GLOBAL CARTESIAN COORDINATES:
:FCA001:   1.ATOM                         0.000          0.000          0.000 partial forces
:FCA002:   2.ATOM                         0.000          0.000          0.000 partial forces
:FCA003:   3.ATOM                         0.000          0.000       -473.054 partial forces
       TOTAL FORCE WITH RESPECT TO THE GLOBAL COORDINATE SYSTEM:
:FGL001:   1.ATOM                 0.000000000     0.000000000     0.000000000 partial forces
:FGL002:   2.ATOM                 0.000000000     0.000000000     0.000000000 partial forces
:FGL003:   3.ATOM              -473.054021685  -473.054021685  -473.054021685 partial forces


            ---------
:ITE002:  2. ITERATION
            ---------

:NATO :    3 INDEPENDENT AND    4 TOTAL ATOMS IN UNITCELL
       SUBSTANCE: CuAlO2 BenkoF84                                             

       LATTICE                      = R   
:POT  : POTENTIAL OPTION EX_PBE EC_PBE VX_PBE VC_PBE
:LAT  : LATTICE CONSTANTS=  5.40508  5.40508 32.03482
:VOL  : UNIT CELL VOLUME =     270.16967
       MODE OF CALCULATION IS       = RELA
       NON-SPINPOLARIZED CALCULATION
:IFFT  : FFT-parameters:   90   90   90 Factor: 2.00
       ATOMNUMBER=  1 Cu1        VCOUL-ZERO =  0.40245E+00
:EFG001:                        EFG         =    -0.04346   *10**21  V / m**2
                               V20  TOT/SRF=    -0.03764     0.31489
                               V22  TOT/SRF=     0.00000     0.00000
                               V22M TOT/SRF=     0.00000     0.00000
                               V21  TOT/SRF=     0.00000     0.00000
                               V21M TOT/SRF=     0.00000     0.00000

              0.02173    0.00000    0.00000        0.02173    0.00000    0.00000
              0.00000    0.02173    0.00000        0.00000    0.02173    0.00000
              0.00000    0.00000   -0.04346        0.00000    0.00000   -0.04346

         MAIN DIRECTIONS OF THE EFG   1.0000  0.0000  0.0000
                                      0.0000  1.0000  0.0000
                                      0.0000  0.0000  1.0000
:ANG001:  ANGLE WITH OLD X-AXIS =         0.0

:ETA001:                         ASYMM. ETA =     0.00000


       ATOMNUMBER=  2 Al1        VCOUL-ZERO = -0.82886E-01
:EFG002:                        EFG         =    -0.10254   *10**21  V / m**2
                               V20  TOT/SRF=    -0.08880    -0.18545
                               V22  TOT/SRF=     0.00000     0.00000
                               V22M TOT/SRF=     0.00000     0.00000
                               V21  TOT/SRF=     0.00000     0.00000
                               V21M TOT/SRF=     0.00000     0.00000

              0.05127    0.00000    0.00000        0.05127    0.00000    0.00000
              0.00000    0.05127    0.00000        0.00000    0.05127    0.00000
              0.00000    0.00000   -0.10254        0.00000    0.00000   -0.10254

         MAIN DIRECTIONS OF THE EFG   1.0000  0.0000  0.0000
                                      0.0000  1.0000  0.0000
                                      0.0000  0.0000  1.0000
:ANG002:  ANGLE WITH OLD X-AXIS =         0.0

:ETA002:                         ASYMM. ETA =     0.00000


       ATOMNUMBER=  3 O 1        VCOUL-ZERO =  0.29391E-01
:EFG003:                        EFG         =     0.33489   *10**21  V / m**2
                               V20  TOT/SRF=     0.29002     0.27223
                               V22  TOT/SRF=     0.00000     0.00000
                               V22M TOT/SRF=     0.00000     0.00000
                               V21  TOT/SRF=     0.00000     0.00000
                               V21M TOT/SRF=     0.00000     0.00000

             -0.16744    0.00000    0.00000       -0.16744    0.00000    0.00000
              0.00000   -0.16744    0.00000        0.00000   -0.16744    0.00000
              0.00000    0.00000    0.33489        0.00000    0.00000    0.33489

         MAIN DIRECTIONS OF THE EFG   1.0000  0.0000  0.0000
                                      0.0000  1.0000  0.0000
                                      0.0000  0.0000  1.0000
:ANG003:  ANGLE WITH OLD X-AXIS =         0.0

:ETA003:                         ASYMM. ETA =     0.00000


     HELLMANN-FEYNMAN-FORCE IN mRy/a.u. = |F|  Fx       Fy             Fz
:FHF001:   1.ATOM      0.000000000      0.000000000      0.000000000      0.000000000

     HELLMANN-FEYNMAN-FORCE IN mRy/a.u. = |F|  Fx       Fy             Fz
:FHF002:   2.ATOM      0.000000000      0.000000000      0.000000000      0.000000000

     HELLMANN-FEYNMAN-FORCE IN mRy/a.u. = |F|  Fx       Fy             Fz
:FHF003:   3.ATOM    598.293015596      0.000000000      0.000000000   -598.293015596

:FIT001: LUSE= 13 SIGMA OF V-XC FIT FOR ATOM  1  0.7536686E-02
:FIT001: LUSE= 13 SIGMA OF V-XC FIT FOR ATOM  1  0.7536686E-02
:FIT002: LUSE= 13 SIGMA OF V-XC FIT FOR ATOM  2  0.4803905E-02
:FIT002: LUSE= 13 SIGMA OF V-XC FIT FOR ATOM  2  0.4803905E-02
:FIT003: LUSE= 13 SIGMA OF V-XC FIT FOR ATOM  3  0.5226679E-04
:FIT003: LUSE= 13 SIGMA OF V-XC FIT FOR ATOM  3  0.5226679E-04
:DEN  : DENSITY INTEGRAL  =         -1792.23127038   (Ry)
       ELS_POTENTIAL_AT Z=0 and Z=0.5:   0.00000   0.00000
       ELS_POTENTIAL_AT Y=0 and Y=0.5:   0.00000   0.00000
:VZERO:v0,v0c,v0x  -0.82829   0.00000  -0.82829 v5,v5c,v5x  -0.82829   0.00000  -0.82829
:VZERY:v0,v0c,v0x  -0.82829   0.00000  -0.82829 v5,v5c,v5x  -0.82829   0.00000  -0.82829
:VZERX:v0,v0c,v0x  -2.45814  -1.23851  -1.21962 v5,v5c,v5x  -0.01882   0.43016  -0.44897

          ATOMIC SPHERE DEPENDENT PARAMETERS FOR ATOM  Cu1       
:e__0001: OVERALL ENERGY PARAMETER IS    0.2509
          OVERALL BASIS SET ON ATOM IS LAPW
:E1_0001: E( 1)=    0.2509
             APW+lo
:E1_0001: E( 1)=   -4.6384   E(BOTTOM)=   -4.704   E(TOP)=   -4.573  1  2   175
             LOCAL ORBITAL
:E2_0001: E( 2)=    0.2960   E(BOTTOM)=   -0.025   E(TOP)=    0.617  0  1   131
             APW+lo
:E0_0001: E( 0)=    0.2509
             APW+lo

          ATOMIC SPHERE DEPENDENT PARAMETERS FOR ATOM  Al1       
:e__0002: OVERALL ENERGY PARAMETER IS    0.2509
          OVERALL BASIS SET ON ATOM IS LAPW
:E1_0002: E( 1)=    0.2509
             APW+lo
:E1_0002: E( 1)=   -4.1315   E(BOTTOM)=   -4.237   E(TOP)=   -4.026  0  1   166
             LOCAL ORBITAL
:E0_0002: E( 0)=    0.2509
             APW+lo

          ATOMIC SPHERE DEPENDENT PARAMETERS FOR ATOM  O 1       
:e__0003: OVERALL ENERGY PARAMETER IS    0.2509
          OVERALL BASIS SET ON ATOM IS LAPW
:E0_0003: E( 0)=   -1.5500   E(BOTTOM)=   -2.773   E(TOP)= -200.000  1 -1   245
             APW+lo
:E0_0003: E( 0)=    0.6509
             LOCAL ORBITAL
:E1_0003: E( 1)=    0.2509
             APW+lo

       K=   0.00000   0.00000   0.00000            1
:RKM  : MATRIX SIZE   616LOs:  29  RKM= 6.98  WEIGHT= 1.00  PGR:    
       EIGENVALUES ARE:
:EIG00001:      -4.6301772   -4.6208412   -4.6208412   -4.1064439   -4.1064439
:EIG00006:      -4.1022938   -1.1803313   -1.0404038   -0.1979510    0.0802245
:EIG00011:       0.0802245    0.0842698    0.1491887    0.1491887    0.2237012
:EIG00016:       0.3342702    0.3342702    0.3706994    0.3706994    0.5826725
:EIG00021:       0.9087169    0.9593073    1.3480738    1.4922756    1.4922756
:EIG00026:       1.5634555    1.5903790    1.5903790    1.9052809
       ********************************************************

:KPT   :      NUMBER OF K-POINTS:    13
       Insulator, EF-inconsistency corrected
:GAP  :    0.1385 Ry =     1.884 eV   (provided you have a proper k-mesh)
         Bandranges (emin - emax) and occupancy:
:BAN00009:   9   -0.197951   -0.118739  2.00000000
:BAN00010:  10   -0.157238    0.080225  2.00000000
:BAN00011:  11   -0.082270    0.091888  2.00000000
:BAN00012:  12    0.021020    0.091888  2.00000000
:BAN00013:  13    0.044754    0.149189  2.00000000
:BAN00014:  14    0.064508    0.149189  2.00000000
:BAN00015:  15    0.223701    0.320890  2.00000000
:BAN00016:  16    0.329371    0.343995  2.00000000
:BAN00017:  17    0.334270    0.371276  2.00000000
:BAN00018:  18    0.354699    0.384180  2.00000000
:BAN00019:  19    0.365904    0.444172  2.00000000
:BAN00020:  20    0.582672    0.756876  0.00000000
:BAN00021:  21    0.775088    1.093974  0.00000000
:BAN00022:  22    0.959307    1.132294  0.00000000
:BAN00023:  23    1.111891    1.348074  0.00000000
:BAN00024:  24    1.229373    1.494842  0.00000000
        Energy to separate low and high energystates:   -0.24795


:NOE  : NUMBER OF ELECTRONS          =  38.000

:FER  : F E R M I - ENERGY(TETRAH.M.)=   0.4441719990
:GMA  : POTENTIAL AND CHARGE CUT-OFF  12.00 Ry**.5




:POS001: ATOM   -1 X,Y,Z = 0.00000 0.00000 0.00000  MULT= 1  ZZ= 29.000  Cu1       

       LMMAX  7
       LM=   0 0  2 0  4 0  4 3  6 0  6 3  6 6

:CHA001: TOTAL VALENCE CHARGE INSIDE SPHERE   1 =  15.4313    (RMT=  2.0000 )
:PCS001: PARTIAL CHARGES SPHERE =  1 S,P,D,F,PZ,PXY, D-Z2,D-XY,X2Y2,D-XZ,YZ 
:QTL001: 0.2176 6.1219 9.0682 0.0173 2.0939 4.0280 0.0000 1.6522 3.6706 3.7454 0.0000 0.0000
        Q-s-low E-s-low   Q-p-low E-p-low   Q-d-low E-d-low   Q-f-low E-f-low
:EPL001:  0.0136 -1.0664    5.9996 -4.6150    0.0171 -1.0647    0.0027 -1.0666
        Q-s-hi  E-s-hi    Q-p-hi  E-p-hi    Q-d-hi  E-d-hi    Q-f-hi  E-f-hi 
:EPH001:  0.2041  0.1406    0.1223  0.0648    9.0511  0.3352    0.0147  0.0386
:VZZ001: EFG INSIDE SPHERE   1 =    -4.834055      UP TO R =   2.00000




:POS002: ATOM   -2 X,Y,Z = 0.50000 0.50000 0.50000  MULT= 1  ZZ= 13.000  Al1       

       LMMAX  7
       LM=   0 0  2 0  4 0  4 3  6 0  6 3  6 6

:CHA002: TOTAL VALENCE CHARGE INSIDE SPHERE   2 =   6.5387    (RMT=  1.8000 )
:PCS002: PARTIAL CHARGES SPHERE =  2 S,P,D,F,PZ,PXY, D-Z2,D-XY,X2Y2,D-XZ,YZ 
:QTL002: 0.1906 6.2101 0.1138 0.0195 2.0601 4.1500 0.0000 0.0083 0.0488 0.0567 0.0000 0.0000
        Q-s-low E-s-low   Q-p-low E-p-low   Q-d-low E-d-low   Q-f-low E-f-low
:EPL002:  0.0308 -1.1242    6.0070 -4.0866    0.0155 -1.0406    0.0030 -1.0609
        Q-s-hi  E-s-hi    Q-p-hi  E-p-hi    Q-d-hi  E-d-hi    Q-f-hi  E-f-hi 
:EPH002:  0.1599 -0.1076    0.2032 -0.0074    0.0983  0.0435    0.0165  0.0603
:VZZ002: EFG INSIDE SPHERE   2 =     0.989612      UP TO R =   1.80000




:POS003: ATOM   -3 X,Y,Z = 0.10979 0.10979 0.10979  MULT= 2  ZZ=  8.000  O 1       

       LMMAX 12
       LM=   0 0  1 0  2 0  3 0  3 3  4 0  4 3  5 0  5 3  6 0  6 3  6 6

:CHA003: TOTAL VALENCE CHARGE INSIDE SPHERE   3 =   4.9318    (RMT=  1.4000 )
:PCS003: PARTIAL CHARGES SPHERE =  3 S,P,D,F,PZ,PXY, D-Z2,D-XY,X2Y2,D-XZ,YZ 
:QTL003: 1.4206 3.5037 0.0066 0.0007 1.1420 2.3617 0.0000 0.0015 0.0010 0.0041 0.0000 0.0000
        Q-s-low E-s-low   Q-p-low E-p-low   Q-d-low E-d-low   Q-f-low E-f-low
:EPL003:  1.3778 -1.0658    0.0063 -1.2623    0.0002 -2.6376    0.0001 -2.4528
        Q-s-hi  E-s-hi    Q-p-hi  E-p-hi    Q-d-hi  E-d-hi    Q-f-hi  E-f-hi 
:EPH003:  0.0428 -0.0477    3.4974  0.0211    0.0063  0.1969    0.0006  0.2452
:VZZ003: EFG INSIDE SPHERE   3 =     2.680990      UP TO R =   1.40000

:CHA  : TOTAL VALENCE CHARGE INSIDE UNIT CELL =      38.000000

:SUM  : SUM OF EIGENVALUES =         -53.218242022


        1.ATOM      Cu1                   5 CORE STATES
:1S 001: 1S                -649.687066335 Ry
:2S 001: 2S                 -77.411398039 Ry
:2PP001: 2P*                -67.725373556 Ry
:2P 001: 2P                 -66.219469119 Ry
:3S 001: 3S                  -7.759501562 Ry

        2.ATOM      Al1                   2 CORE STATES
:1S 002: 1S                -110.034130235 Ry
:2S 002: 2S                  -6.936094328 Ry

        3.ATOM      O 1                   1 CORE STATES
       CORE-FORCE in mRy/a.u. = |F|      Fx             Fy             Fz
:FCO003:   3.ATOM    152.750090279      0.000000000      0.000000000    152.750090279

:1S 003: 1S                 -36.938477624 Ry
:CINT001 Core Integral Atom   1   11.998548
:CINT002 Core Integral Atom   2    3.995903
:CINT003 Core Integral Atom   3    1.999999

       DENSITY AT NUCLEUS
        JATOM        VALENCE       SEMI-CORE          CORE           TOTAL
:RTO001:   1        6.118149        0.000000    22630.580369    22636.698518
:RTO002:   2        2.391212        0.000000     1486.759718     1489.150930
:RTO003:   3       15.518695        0.000000      303.954042      319.472738
     
       CHARGES OF NEW CHARGE DENSITY
:NTO   : INTERSTITIAL CHARGE =     6.166547
:NTO001: CHARGE SPHERE  1    =    27.429814
:NTO002: CHARGE SPHERE  2    =    10.534558
:NTO003: CHARGE SPHERE  3    =     6.931753

:NEC01: NUCLEAR AND ELECTRONIC CHARGE     58.00000    57.99443
     
       CHARGES OF OLD CHARGE DENSITY
:OTO   : INTERSTITIAL CHARGE =     7.134782
:OTO001: CHARGE SPHERE  1    =    27.288608
:OTO002: CHARGE SPHERE  2    =    10.832302
:OTO003: CHARGE SPHERE  3    =     6.372154

:NEC02: NUCLEAR AND ELECTRONIC CHARGE     58.00000    58.00000
     
       CONVERGENCE TEST
:DTO001: DIFFERENCE IN SPHERE  1 =  0.4989880
:DTO002: DIFFERENCE IN SPHERE  2 =  0.2752525
:DTO003: DIFFERENCE IN SPHERE  3 =  0.7061989

:DIS  :  CHARGE DISTANCE       ( 0.7061989 for atom    3 spin 1)      0.5466596
:BIG check (qbig,qrms,qtot)    0.235D+00   0.407D+00   0.547D+00
 
******************************************************
* MULTISECANT MIXING VER6 RELEASE 6.0 OPTIONS        *
* Standard Mode with controls                        *
* Regularization       1.000E-06                     *
* Trust Region Control Active                        *
* Max Number of Memory Steps    8                    *
******************************************************
 
:PLANE:  INTERSTITIAL TOTAL      1.68537 DISTAN  2.069E+01 % 
:CHARG:  CLM CHARGE   /ATOM     54.21353 DISTAN  1.578E+00 % 
:REDuction and DMIX in Broyd:    0.8289    0.1658
 
 Step History DMIX, Red, Pred, Trust, FRMS, FABS
  2  3.5000E-02  1.0000E+00  1.0000E+00  1.0000E+00
  
:DIRM :  MEMORY  1/ 8 RESCALES   7.51
:MIX  :   PRATT  REGULARIZATION: 1.00E-06  GREED: 0.088  Expand 2.50  0.09                
     
       CHARGES OF MIXED CHARGE DENSITY
:CTO   : INTERSTITIAL CHARGE =     7.040817
:CTO001: CHARGE SPHERE  1    =    27.302664
:CTO002: CHARGE SPHERE  2    =    10.804327
:CTO003: CHARGE SPHERE  3    =     6.426096

:NEC03: NUCLEAR AND ELECTRONIC CHARGE     58.00000    58.00000

PW CHANGE     H    K    L       Current     Change     Residue
:PTO001:      0    0    0  6.73133183E-02 -4.176E-04 -4.344E-03
:PTO002:     -1   -1   -1 -1.85736131E-02 -5.899E-04 -6.279E-03
:PTO003:     -2   -2   -2 -3.07289137E-03 -7.219E-04 -7.747E-03
:PTO004:     -1    0    0  1.10857235E-01  1.114E-03  1.177E-02
:PTO005:     -1   -1    0  6.45658139E-02 -7.857E-04 -8.719E-03
:PTO006:     -2   -1   -1 -5.50161490E-02 -2.677E-03 -2.897E-02
:PTO007:     -2   -2   -1 -6.62794067E-02 -1.984E-03 -2.132E-02
:PTO008:     -3   -3   -3  2.99863589E-02  3.655E-04  3.887E-03
:PTO009:     -3   -2   -2  1.79676029E-02 -4.611E-05 -5.761E-04
:PTO010:     -3   -3   -2  5.28250071E-02  2.578E-04  2.399E-03
:PTO011:     -1    0    1  4.59572567E-02 -1.076E-04 -1.749E-03
:PTO012:     -4   -4   -4 -2.59537026E-03 -3.171E-04 -3.471E-03

:ENE  : ********** TOTAL ENERGY IN Ry =        -4097.18842748

       TOTAL FORCE IN mRy/a.u. = |F|     Fx             Fy             Fz     with/without FOR in case.in2
:FOR001:   1.ATOM          0.000          0.000          0.000          0.000 partial forces
:FOR002:   2.ATOM          0.000          0.000          0.000          0.000 partial forces
:FOR003:   3.ATOM        445.543          0.000          0.000       -445.543 partial forces
       TOTAL FORCE WITH RESPECT TO GLOBAL CARTESIAN COORDINATES:
:FCA001:   1.ATOM                         0.000          0.000          0.000 partial forces
:FCA002:   2.ATOM                         0.000          0.000          0.000 partial forces
:FCA003:   3.ATOM                         0.000          0.000       -445.543 partial forces
       TOTAL FORCE WITH RESPECT TO THE GLOBAL COORDINATE SYSTEM:
:FGL001:   1.ATOM                 0.000000000     0.000000000     0.000000000 partial forces
:FGL002:   2.ATOM                 0.000000000     0.000000000     0.000000000 partial forces
:FGL003:   3.ATOM              -445.542925317  -445.542925317  -445.542925317 partial forces


            ---------
:ITE003:  3. ITERATION
            ---------

:NATO :    3 INDEPENDENT AND    4 TOTAL ATOMS IN UNITCELL
       SUBSTANCE: CuAlO2 BenkoF84                                             

       LATTICE                      = R   
:POT  : POTENTIAL OPTION EX_PBE EC_PBE VX_PBE VC_PBE
:LAT  : LATTICE CONSTANTS=  5.40508  5.40508 32.03482
:VOL  : UNIT CELL VOLUME =     270.16967
       MODE OF CALCULATION IS       = RELA
       NON-SPINPOLARIZED CALCULATION
:IFFT  : FFT-parameters:   90   90   90 Factor: 2.00
       ATOMNUMBER=  1 Cu1        VCOUL-ZERO =  0.39053E+00
:EFG001:                        EFG         =    -0.49762   *10**21  V / m**2
                               V20  TOT/SRF=    -0.43095     0.27037
                               V22  TOT/SRF=     0.00000     0.00000
                               V22M TOT/SRF=     0.00000     0.00000
                               V21  TOT/SRF=     0.00000     0.00000
                               V21M TOT/SRF=     0.00000     0.00000

              0.24881    0.00000    0.00000        0.24881    0.00000    0.00000
              0.00000    0.24881    0.00000        0.00000    0.24881    0.00000
              0.00000    0.00000   -0.49762        0.00000    0.00000   -0.49762

         MAIN DIRECTIONS OF THE EFG   1.0000  0.0000  0.0000
                                      0.0000  1.0000  0.0000
                                      0.0000  0.0000  1.0000
:ANG001:  ANGLE WITH OLD X-AXIS =         0.0

:ETA001:                         ASYMM. ETA =     0.00000


       ATOMNUMBER=  2 Al1        VCOUL-ZERO = -0.83352E-01
:EFG002:                        EFG         =     0.00044   *10**21  V / m**2
                               V20  TOT/SRF=     0.00038    -0.15770
                               V22  TOT/SRF=     0.00000     0.00000
                               V22M TOT/SRF=     0.00000     0.00000
                               V21  TOT/SRF=     0.00000     0.00000
                               V21M TOT/SRF=     0.00000     0.00000

             -0.00022    0.00000    0.00000       -0.00022    0.00000    0.00000
              0.00000   -0.00022    0.00000        0.00000   -0.00022    0.00000
              0.00000    0.00000    0.00044        0.00000    0.00000    0.00044

         MAIN DIRECTIONS OF THE EFG   1.0000  0.0000  0.0000
                                      0.0000  1.0000  0.0000
                                      0.0000  0.0000  1.0000
:ANG002:  ANGLE WITH OLD X-AXIS =         0.0

:ETA002:                         ASYMM. ETA =     0.00000


       ATOMNUMBER=  3 O 1        VCOUL-ZERO =  0.60198E-01
:EFG003:                        EFG         =     0.56694   *10**21  V / m**2
                               V20  TOT/SRF=     0.49098     0.26858
                               V22  TOT/SRF=     0.00000     0.00000
                               V22M TOT/SRF=     0.00000     0.00000
                               V21  TOT/SRF=     0.00000     0.00000
                               V21M TOT/SRF=     0.00000     0.00000

             -0.28347    0.00000    0.00000       -0.28347    0.00000    0.00000
              0.00000   -0.28347    0.00000        0.00000   -0.28347    0.00000
              0.00000    0.00000    0.56694        0.00000    0.00000    0.56694

         MAIN DIRECTIONS OF THE EFG   1.0000  0.0000  0.0000
                                      0.0000  1.0000  0.0000
                                      0.0000  0.0000  1.0000
:ANG003:  ANGLE WITH OLD X-AXIS =         0.0

:ETA003:                         ASYMM. ETA =     0.00000


     HELLMANN-FEYNMAN-FORCE IN mRy/a.u. = |F|  Fx       Fy             Fz
:FHF001:   1.ATOM      0.000000000      0.000000000      0.000000000      0.000000000

     HELLMANN-FEYNMAN-FORCE IN mRy/a.u. = |F|  Fx       Fy             Fz
:FHF002:   2.ATOM      0.000000000      0.000000000      0.000000000      0.000000000

     HELLMANN-FEYNMAN-FORCE IN mRy/a.u. = |F|  Fx       Fy             Fz
:FHF003:   3.ATOM    509.910091934      0.000000000      0.000000000   -509.910091934

:FIT001: LUSE= 13 SIGMA OF V-XC FIT FOR ATOM  1  0.7421660E-02
:FIT001: LUSE= 13 SIGMA OF V-XC FIT FOR ATOM  1  0.7421660E-02
:FIT002: LUSE= 13 SIGMA OF V-XC FIT FOR ATOM  2  0.4770606E-02
:FIT002: LUSE= 13 SIGMA OF V-XC FIT FOR ATOM  2  0.4770606E-02
:FIT003: LUSE= 13 SIGMA OF V-XC FIT FOR ATOM  3  0.6208668E-04
:FIT003: LUSE= 13 SIGMA OF V-XC FIT FOR ATOM  3  0.6208668E-04
:DEN  : DENSITY INTEGRAL  =         -1793.85561932   (Ry)
       ELS_POTENTIAL_AT Z=0 and Z=0.5:   0.00000   0.00000
       ELS_POTENTIAL_AT Y=0 and Y=0.5:   0.00000   0.00000
:VZERO:v0,v0c,v0x  -0.82352   0.00000  -0.82352 v5,v5c,v5x  -0.82352   0.00000  -0.82352
:VZERY:v0,v0c,v0x  -0.82352   0.00000  -0.82352 v5,v5c,v5x  -0.82352   0.00000  -0.82352
:VZERX:v0,v0c,v0x  -2.41953  -1.20013  -1.21940 v5,v5c,v5x  -0.04003   0.39493  -0.43496

          ATOMIC SPHERE DEPENDENT PARAMETERS FOR ATOM  Cu1       
:e__0001: OVERALL ENERGY PARAMETER IS    0.2459
          OVERALL BASIS SET ON ATOM IS LAPW
:E1_0001: E( 1)=    0.2459
             APW+lo
:E1_0001: E( 1)=   -4.6133   E(BOTTOM)=   -4.680   E(TOP)=   -4.547  1  2   179
             LOCAL ORBITAL
:E2_0001: E( 2)=    0.3157   E(BOTTOM)=   -0.010   E(TOP)=    0.642  0  1   129
             APW+lo
:E0_0001: E( 0)=    0.2459
             APW+lo

          ATOMIC SPHERE DEPENDENT PARAMETERS FOR ATOM  Al1       
:e__0002: OVERALL ENERGY PARAMETER IS    0.2459
          OVERALL BASIS SET ON ATOM IS LAPW
:E1_0002: E( 1)=    0.2459
             APW+lo
:E1_0002: E( 1)=   -4.1464   E(BOTTOM)=   -4.251   E(TOP)=   -4.042  0  1   166
             LOCAL ORBITAL
:E0_0002: E( 0)=    0.2459
             APW+lo

          ATOMIC SPHERE DEPENDENT PARAMETERS FOR ATOM  O 1       
:e__0003: OVERALL ENERGY PARAMETER IS    0.2459
          OVERALL BASIS SET ON ATOM IS LAPW
:E0_0003: E( 0)=   -1.5500   E(BOTTOM)=   -2.723   E(TOP)= -200.000  1 -1   236
             APW+lo
:E0_0003: E( 0)=    0.6459
             LOCAL ORBITAL
:E1_0003: E( 1)=    0.2459
             APW+lo

       K=   0.00000   0.00000   0.00000            1
:RKM  : MATRIX SIZE   616LOs:  29  RKM= 6.98  WEIGHT= 1.00  PGR:    
       EIGENVALUES ARE:
:EIG00001:      -4.6039243   -4.5959688   -4.5959688   -4.1211735   -4.1211735
:EIG00006:      -4.1179898   -1.1422147   -0.9980608   -0.1689698    0.1215790
:EIG00011:       0.1215790    0.1255465    0.1939952    0.1939952    0.2276750
:EIG00016:       0.3515799    0.3515799    0.3932691    0.3932691    0.6029627
:EIG00021:       0.9195778    0.9796274    1.3524251    1.4996501    1.4996501
:EIG00026:       1.5786830    1.5997966    1.5997966    1.8996500
       ********************************************************

:KPT   :      NUMBER OF K-POINTS:    13
       Insulator, EF-inconsistency corrected
:GAP  :    0.1350 Ry =     1.835 eV   (provided you have a proper k-mesh)
         Bandranges (emin - emax) and occupancy:
:BAN00009:   9   -0.168970   -0.085164  2.00000000
:BAN00010:  10   -0.125912    0.121579  2.00000000
:BAN00011:  11   -0.049467    0.134955  2.00000000
:BAN00012:  12    0.059333    0.134955  2.00000000
:BAN00013:  13    0.083240    0.193995  2.00000000
:BAN00014:  14    0.103614    0.193995  2.00000000
:BAN00015:  15    0.227675    0.337077  2.00000000
:BAN00016:  16    0.349195    0.361303  2.00000000
:BAN00017:  17    0.351580    0.394937  2.00000000
:BAN00018:  18    0.376108    0.403707  2.00000000
:BAN00019:  19    0.387999    0.468012  2.00000000
:BAN00020:  20    0.602963    0.761392  0.00000000
:BAN00021:  21    0.790206    1.094682  0.00000000
:BAN00022:  22    0.979627    1.147218  0.00000000
:BAN00023:  23    1.116978    1.355789  0.00000000
:BAN00024:  24    1.244119    1.502530  0.00000000
        Energy to separate low and high energystates:   -0.21897


:NOE  : NUMBER OF ELECTRONS          =  38.000

:FER  : F E R M I - ENERGY(TETRAH.M.)=   0.4680118670
:GMA  : POTENTIAL AND CHARGE CUT-OFF  12.00 Ry**.5




:POS001: ATOM   -1 X,Y,Z = 0.00000 0.00000 0.00000  MULT= 1  ZZ= 29.000  Cu1       

       LMMAX  7
       LM=   0 0  2 0  4 0  4 3  6 0  6 3  6 6

:CHA001: TOTAL VALENCE CHARGE INSIDE SPHERE   1 =  15.3968    (RMT=  2.0000 )
:PCS001: PARTIAL CHARGES SPHERE =  1 S,P,D,F,PZ,PXY, D-Z2,D-XY,X2Y2,D-XZ,YZ 
:QTL001: 0.2353 6.1308 9.0071 0.0175 2.0979 4.0328 0.0000 1.6184 3.6527 3.7361 0.0000 0.0000
        Q-s-low E-s-low   Q-p-low E-p-low   Q-d-low E-d-low   Q-f-low E-f-low
:EPL001:  0.0144 -1.0240    6.0000 -4.5892    0.0178 -1.0221    0.0027 -1.0222
        Q-s-hi  E-s-hi    Q-p-hi  E-p-hi    Q-d-hi  E-d-hi    Q-f-hi  E-f-hi 
:EPH001:  0.2209  0.1658    0.1308  0.1020    8.9894  0.3535    0.0148  0.0792
:VZZ001: EFG INSIDE SPHERE   1 =    -4.571802      UP TO R =   2.00000




:POS002: ATOM   -2 X,Y,Z = 0.50000 0.50000 0.50000  MULT= 1  ZZ= 13.000  Al1       

       LMMAX  7
       LM=   0 0  2 0  4 0  4 3  6 0  6 3  6 6

:CHA002: TOTAL VALENCE CHARGE INSIDE SPHERE   2 =   6.5661    (RMT=  1.8000 )
:PCS002: PARTIAL CHARGES SPHERE =  2 S,P,D,F,PZ,PXY, D-Z2,D-XY,X2Y2,D-XZ,YZ 
:QTL002: 0.2005 6.2228 0.1185 0.0198 2.0645 4.1583 0.0000 0.0087 0.0506 0.0591 0.0000 0.0000
        Q-s-low E-s-low   Q-p-low E-p-low   Q-d-low E-d-low   Q-f-low E-f-low
:EPL002:  0.0324 -1.0838    6.0088 -4.1006    0.0159 -0.9972    0.0030 -1.0178
        Q-s-hi  E-s-hi    Q-p-hi  E-p-hi    Q-d-hi  E-d-hi    Q-f-hi  E-f-hi 
:EPH002:  0.1681 -0.0742    0.2139  0.0304    0.1026  0.0831    0.0168  0.0997
:VZZ002: EFG INSIDE SPHERE   2 =     1.045439      UP TO R =   1.80000




:POS003: ATOM   -3 X,Y,Z = 0.10979 0.10979 0.10979  MULT= 2  ZZ=  8.000  O 1       

       LMMAX 12
       LM=   0 0  1 0  2 0  3 0  3 3  4 0  4 3  5 0  5 3  6 0  6 3  6 6

:CHA003: TOTAL VALENCE CHARGE INSIDE SPHERE   3 =   4.8423    (RMT=  1.4000 )
:PCS003: PARTIAL CHARGES SPHERE =  3 S,P,D,F,PZ,PXY, D-Z2,D-XY,X2Y2,D-XZ,YZ 
:QTL003: 1.4096 3.4250 0.0067 0.0007 1.1136 2.3114 0.0000 0.0015 0.0010 0.0042 0.0000 0.0000
        Q-s-low E-s-low   Q-p-low E-p-low   Q-d-low E-d-low   Q-f-low E-f-low
:EPL003:  1.3642 -1.0233    0.0061 -1.2271    0.0003 -2.5757    0.0001 -2.3984
        Q-s-hi  E-s-hi    Q-p-hi  E-p-hi    Q-d-hi  E-d-hi    Q-f-hi  E-f-hi 
:EPH003:  0.0454 -0.0158    3.4190  0.0601    0.0065  0.2219    0.0006  0.2674
:VZZ003: EFG INSIDE SPHERE   3 =     2.843656      UP TO R =   1.40000

:CHA  : TOTAL VALENCE CHARGE INSIDE UNIT CELL =      38.000000

:SUM  : SUM OF EIGENVALUES =         -52.360832375


        1.ATOM      Cu1                   5 CORE STATES
:1S 001: 1S                -649.640518881 Ry
:2S 001: 2S                 -77.364418112 Ry
:2PP001: 2P*                -67.677999811 Ry
:2P 001: 2P                 -66.172138083 Ry
:3S 001: 3S                  -7.732655639 Ry

        2.ATOM      Al1                   2 CORE STATES
:1S 002: 1S                -110.056949285 Ry
:2S 002: 2S                  -6.950905213 Ry

        3.ATOM      O 1                   1 CORE STATES
       CORE-FORCE in mRy/a.u. = |F|      Fx             Fy             Fz
:FCO003:   3.ATOM    133.714869778      0.000000000      0.000000000    133.714869778

:1S 003: 1S                 -36.841935752 Ry
:CINT001 Core Integral Atom   1   11.998525
:CINT002 Core Integral Atom   2    3.995936
:CINT003 Core Integral Atom   3    1.999999

       DENSITY AT NUCLEUS
        JATOM        VALENCE       SEMI-CORE          CORE           TOTAL
:RTO001:   1        6.659301        0.000000    22630.061066    22636.720368
:RTO002:   2        2.521104        0.000000     1486.842472     1489.363576
:RTO003:   3       15.296003        0.000000      303.917003      319.213006
     
       CHARGES OF NEW CHARGE DENSITY
:NTO   : INTERSTITIAL CHARGE =     6.352567
:NTO001: CHARGE SPHERE  1    =    27.395303
:NTO002: CHARGE SPHERE  2    =    10.562038
:NTO003: CHARGE SPHERE  3    =     6.842264

:NEC01: NUCLEAR AND ELECTRONIC CHARGE     58.00000    57.99444
     
       CHARGES OF OLD CHARGE DENSITY
:OTO   : INTERSTITIAL CHARGE =     7.040817
:OTO001: CHARGE SPHERE  1    =    27.302664
:OTO002: CHARGE SPHERE  2    =    10.804327
:OTO003: CHARGE SPHERE  3    =     6.426096

:NEC02: NUCLEAR AND ELECTRONIC CHARGE     58.00000    58.00000
     
       CONVERGENCE TEST
:DTO001: DIFFERENCE IN SPHERE  1 =  0.2947000
:DTO002: DIFFERENCE IN SPHERE  2 =  0.2242742
:DTO003: DIFFERENCE IN SPHERE  3 =  0.5068262

:DIS  :  CHARGE DISTANCE       ( 0.5068262 for atom    3 spin 1)      0.3831567
:BIG check (qbig,qrms,qtot)    0.169D+00   0.285D+00   0.383D+00
 
******************************************************
* MULTISECANT MIXING VER6 RELEASE 6.0 OPTIONS        *
* Standard Mode with controls                        *
* Regularization       1.000E-06                     *
* Trust Region Control Active                        *
* Max Number of Memory Steps    8                    *
******************************************************
 
:PLANE:  INTERSTITIAL TOTAL      1.69325 DISTAN  1.765E+01 % 
:CHARG:  CLM CHARGE   /ATOM     54.22913 DISTAN  1.192E+00 % 
:REDuction and DMIX in Broyd:    0.9317    0.1863
 
 Step History DMIX, Red, Pred, Trust, FRMS, FABS
  2  3.5000E-02  1.0000E+00  1.0000E+00  1.0000E+00
  3  8.7500E-02  1.0000E+00  1.0000E+00  1.0000E+00
  
:NORMS:  Nuclear, Spectral, Froebius, Shanno-Pua   0.2485E+01  0.2481E+01  0.2481E+01  0.3556E+00
:INFO :  Number of Memory Steps    2 Skipping    0
:INFO :  SLambda=    2.4853550  Max    2.4853550

Eigenvalues, unscaled except for SY+YY
   #     SY Real        SY Imag          SS             YY         SY+YY Real      SY+YY Imag
   1   7.111616E-01   0.000000E+00   3.248035E-01   1.999995E+00   3.767484E+00   0.000000E+00
   2   7.771561E-16   0.000000E+00  -1.665335E-16   4.973426E-06   4.963632E-06   0.000000E+00
 
:INFO :  Singular value   3.767E+00 Weight  1.0000E+00 Projections  -1.124E+02  1.906E+00
:INFO :  Singular value   4.964E-06 Weight  8.6032E-01 Projections   1.097E+02  1.571E+02
 
:DIRM :  MEMORY 2/8 RESCALE   7.16 RED 0.807 PRED 1.000 NEXT 0.663
:INFO :  Blimit    1.530E+00  1.002E+00  6.463E-01  2.589E+00
:DIRP :  |MSR1|= 9.269E-01 |PRATT|= 2.139E+00 ANGLE=   1.8 DEGREES
:DIRQ :  |MSR1|= 8.754E-01 |PRATT|= 1.939E+00 ANGLE=   4.3 DEGREES
:DIR  :  |MSR1|= 1.275E+00 |PRATT|= 2.887E+00 ANGLE=   3.4 DEGREES
:MIX  :   MSE1   REGULARIZATION: 2.00E-06  GREED: 0.097  Newton 1.00  0.44                
     
       CHARGES OF MIXED CHARGE DENSITY
:CTO   : INTERSTITIAL CHARGE =     6.727206
:CTO001: CHARGE SPHERE  1    =    27.345166
:CTO002: CHARGE SPHERE  2    =    10.697551
:CTO003: CHARGE SPHERE  3    =     6.615038

:NEC03: NUCLEAR AND ELECTRONIC CHARGE     58.00000    58.00000

PW CHANGE     H    K    L       Current     Change     Residue
:PTO001:      0    0    0  6.58646861E-02 -1.449E-03 -3.270E-03
:PTO002:     -1   -1   -1 -2.08734879E-02 -2.300E-03 -5.097E-03
:PTO003:     -2   -2   -2 -5.90379945E-03 -2.831E-03 -6.477E-03
:PTO004:     -1    0    0  1.15148326E-01  4.291E-03  9.273E-03
:PTO005:     -1   -1    0  6.11889974E-02 -3.377E-03 -8.069E-03
:PTO006:     -2   -1   -1 -6.58176510E-02 -1.080E-02 -2.485E-02
:PTO007:     -2   -2   -1 -7.40906314E-02 -7.811E-03 -1.790E-02
:PTO008:     -3   -3   -3  3.14063688E-02  1.420E-03  3.149E-03
:PTO009:     -3   -2   -2  1.77356309E-02 -2.320E-04 -7.125E-04
:PTO010:     -3   -3   -2  5.34651222E-02  6.401E-04  1.006E-03
:PTO011:     -1    0    1  4.48729971E-02 -1.084E-03 -3.064E-03
:PTO012:     -4   -4   -4 -3.88883364E-03 -1.293E-03 -3.092E-03

:ENE  : ********** TOTAL ENERGY IN Ry =        -4097.11964092

       TOTAL FORCE IN mRy/a.u. = |F|     Fx             Fy             Fz     with/without FOR in case.in2
:FOR001:   1.ATOM          0.000          0.000          0.000          0.000 partial forces
:FOR002:   2.ATOM          0.000          0.000          0.000          0.000 partial forces
:FOR003:   3.ATOM        376.195          0.000          0.000       -376.195 partial forces
       TOTAL FORCE WITH RESPECT TO GLOBAL CARTESIAN COORDINATES:
:FCA001:   1.ATOM                         0.000          0.000          0.000 partial forces
:FCA002:   2.ATOM                         0.000          0.000          0.000 partial forces
:FCA003:   3.ATOM                         0.000          0.000       -376.195 partial forces
       TOTAL FORCE WITH RESPECT TO THE GLOBAL COORDINATE SYSTEM:
:FGL001:   1.ATOM                 0.000000000     0.000000000     0.000000000 partial forces
:FGL002:   2.ATOM                 0.000000000     0.000000000     0.000000000 partial forces
:FGL003:   3.ATOM              -376.195222156  -376.195222156  -376.195222156 partial forces


            ---------
:ITE004:  4. ITERATION
            ---------

:NATO :    3 INDEPENDENT AND    4 TOTAL ATOMS IN UNITCELL
       SUBSTANCE: CuAlO2 BenkoF84                                             

       LATTICE                      = R   
:POT  : POTENTIAL OPTION EX_PBE EC_PBE VX_PBE VC_PBE
:LAT  : LATTICE CONSTANTS=  5.40508  5.40508 32.03482
:VOL  : UNIT CELL VOLUME =     270.16967
       MODE OF CALCULATION IS       = RELA
       NON-SPINPOLARIZED CALCULATION
:IFFT  : FFT-parameters:   90   90   90 Factor: 2.00
       ATOMNUMBER=  1 Cu1        VCOUL-ZERO =  0.34563E+00
:EFG001:                        EFG         =    -2.21966   *10**21  V / m**2
                               V20  TOT/SRF=    -1.92228     0.11394
                               V22  TOT/SRF=     0.00000     0.00000
                               V22M TOT/SRF=     0.00000     0.00000
                               V21  TOT/SRF=     0.00000     0.00000
                               V21M TOT/SRF=     0.00000     0.00000

              1.10983    0.00000    0.00000        1.10983    0.00000    0.00000
              0.00000    1.10983    0.00000        0.00000    1.10983    0.00000
              0.00000    0.00000   -2.21966        0.00000    0.00000   -2.21966

         MAIN DIRECTIONS OF THE EFG   1.0000  0.0000  0.0000
                                      0.0000  1.0000  0.0000
                                      0.0000  0.0000  1.0000
:ANG001:  ANGLE WITH OLD X-AXIS =         0.0

:ETA001:                         ASYMM. ETA =     0.00000


       ATOMNUMBER=  2 Al1        VCOUL-ZERO = -0.80895E-01
:EFG002:                        EFG         =     0.48359   *10**21  V / m**2
                               V20  TOT/SRF=     0.41880    -0.04789
                               V22  TOT/SRF=     0.00000     0.00000
                               V22M TOT/SRF=     0.00000     0.00000
                               V21  TOT/SRF=     0.00000     0.00000
                               V21M TOT/SRF=     0.00000     0.00000

             -0.24179    0.00000    0.00000       -0.24179    0.00000    0.00000
              0.00000   -0.24179    0.00000        0.00000   -0.24179    0.00000
              0.00000    0.00000    0.48359        0.00000    0.00000    0.48359

         MAIN DIRECTIONS OF THE EFG   1.0000  0.0000  0.0000
                                      0.0000  1.0000  0.0000
                                      0.0000  0.0000  1.0000
:ANG002:  ANGLE WITH OLD X-AXIS =         0.0

:ETA002:                         ASYMM. ETA =     0.00000


       ATOMNUMBER=  3 O 1        VCOUL-ZERO =  0.17573E+00
:EFG003:                        EFG         =     1.60127   *10**21  V / m**2
                               V20  TOT/SRF=     1.38674     0.26300
                               V22  TOT/SRF=     0.00000     0.00000
                               V22M TOT/SRF=     0.00000     0.00000
                               V21  TOT/SRF=     0.00000     0.00000
                               V21M TOT/SRF=     0.00000     0.00000

             -0.80064    0.00000    0.00000       -0.80064    0.00000    0.00000
              0.00000   -0.80064    0.00000        0.00000   -0.80064    0.00000
              0.00000    0.00000    1.60127        0.00000    0.00000    1.60127

         MAIN DIRECTIONS OF THE EFG   1.0000  0.0000  0.0000
                                      0.0000  1.0000  0.0000
                                      0.0000  0.0000  1.0000
:ANG003:  ANGLE WITH OLD X-AXIS =         0.0

:ETA003:                         ASYMM. ETA =     0.00000


     HELLMANN-FEYNMAN-FORCE IN mRy/a.u. = |F|  Fx       Fy             Fz
:FHF001:   1.ATOM      0.000000000      0.000000000      0.000000000      0.000000000

     HELLMANN-FEYNMAN-FORCE IN mRy/a.u. = |F|  Fx       Fy             Fz
:FHF002:   2.ATOM      0.000000000      0.000000000      0.000000000      0.000000000

     HELLMANN-FEYNMAN-FORCE IN mRy/a.u. = |F|  Fx       Fy             Fz
:FHF003:   3.ATOM    150.258372978      0.000000000      0.000000000   -150.258372978

:FIT001: LUSE= 13 SIGMA OF V-XC FIT FOR ATOM  1  0.6937623E-02
:FIT001: LUSE= 13 SIGMA OF V-XC FIT FOR ATOM  1  0.6937623E-02
:FIT002: LUSE= 13 SIGMA OF V-XC FIT FOR ATOM  2  0.4760581E-02
:FIT002: LUSE= 13 SIGMA OF V-XC FIT FOR ATOM  2  0.4760581E-02
:FIT003: LUSE= 13 SIGMA OF V-XC FIT FOR ATOM  3  0.9949865E-04
:FIT003: LUSE= 13 SIGMA OF V-XC FIT FOR ATOM  3  0.9949865E-04
:DEN  : DENSITY INTEGRAL  =         -1798.52218237   (Ry)
       ELS_POTENTIAL_AT Z=0 and Z=0.5:   0.00000   0.00000
       ELS_POTENTIAL_AT Y=0 and Y=0.5:   0.00000   0.00000
:VZERO:v0,v0c,v0x  -0.80434   0.00000  -0.80434 v5,v5c,v5x  -0.80434   0.00000  -0.80434
:VZERY:v0,v0c,v0x  -0.80434   0.00000  -0.80434 v5,v5c,v5x  -0.80434   0.00000  -0.80434
:VZERX:v0,v0c,v0x  -2.28554  -1.06778  -1.21776 v5,v5c,v5x  -0.10561   0.27081  -0.37642

          ATOMIC SPHERE DEPENDENT PARAMETERS FOR ATOM  Cu1       
:e__0001: OVERALL ENERGY PARAMETER IS    0.2680
          OVERALL BASIS SET ON ATOM IS LAPW
:E1_0001: E( 1)=    0.2680
             APW+lo
:E1_0001: E( 1)=   -4.5579   E(BOTTOM)=   -4.627   E(TOP)=   -4.489  1  2   177
             LOCAL ORBITAL
:E2_0001: E( 2)=    0.3565   E(BOTTOM)=    0.017   E(TOP)=    0.696  0  1   133
             APW+lo
:E0_0001: E( 0)=    0.2680
             APW+lo

          ATOMIC SPHERE DEPENDENT PARAMETERS FOR ATOM  Al1       
:e__0002: OVERALL ENERGY PARAMETER IS    0.2680
          OVERALL BASIS SET ON ATOM IS LAPW
:E1_0002: E( 1)=    0.2680
             APW+lo
:E1_0002: E( 1)=   -4.1950   E(BOTTOM)=   -4.297   E(TOP)=   -4.093  0  1   156
             LOCAL ORBITAL
:E0_0002: E( 0)=    0.2680
             APW+lo

          ATOMIC SPHERE DEPENDENT PARAMETERS FOR ATOM  O 1       
:e__0003: OVERALL ENERGY PARAMETER IS    0.2680
          OVERALL BASIS SET ON ATOM IS LAPW
:E0_0003: E( 0)=   -1.5500   E(BOTTOM)=   -2.545   E(TOP)= -200.000  1 -1   230
             APW+lo
:E0_0003: E( 0)=    0.6680
             LOCAL ORBITAL
:E1_0003: E( 1)=    0.2680
             APW+lo

       K=   0.00000   0.00000   0.00000            1
:RKM  : MATRIX SIZE   616LOs:  29  RKM= 6.98  WEIGHT= 1.00  PGR:    
       EIGENVALUES ARE:
:EIG00001:      -4.5456657   -4.5409577   -4.5409577   -4.1697389   -4.1690932
:EIG00006:      -4.1690932   -1.0081800   -0.8495394   -0.0774118    0.2271934
:EIG00011:       0.2598602    0.2598602    0.2669344    0.3510718    0.3510718
:EIG00016:       0.3847935    0.3847935    0.4509079    0.4509079    0.6668960
:EIG00021:       0.9651960    1.0524206    1.3714712    1.5313139    1.5313139
:EIG00026:       1.6369242    1.6369242    1.6428260    1.8795215    1.9566394
:EIG00031:       1.9566394
       ********************************************************

:KPT   :      NUMBER OF K-POINTS:    13
       Insulator, EF-inconsistency corrected
:GAP  :    0.1422 Ry =     1.933 eV   (provided you have a proper k-mesh)
         Bandranges (emin - emax) and occupancy:
:BAN00009:   9   -0.077412    0.027651  2.00000000
:BAN00010:  10   -0.021254    0.227193  2.00000000
:BAN00011:  11    0.060090    0.259860  2.00000000
:BAN00012:  12    0.181124    0.286164  2.00000000
:BAN00013:  13    0.205758    0.296974  2.00000000
:BAN00014:  14    0.231923    0.351072  2.00000000
:BAN00015:  15    0.306924    0.371057  2.00000000
:BAN00016:  16    0.384793    0.412931  2.00000000
:BAN00017:  17    0.384793    0.443457  2.00000000
:BAN00018:  18    0.420492    0.470671  2.00000000
:BAN00019:  19    0.442276    0.524743  2.00000000
:BAN00020:  20    0.666896    0.795266  0.00000000
:BAN00021:  21    0.846945    1.091951  0.00000000
:BAN00022:  22    1.042679    1.233206  0.00000000
:BAN00023:  23    1.142159    1.420803  0.00000000
:BAN00024:  24    1.283867    1.535394  0.00000000
        Energy to separate low and high energystates:   -0.12741


:NOE  : NUMBER OF ELECTRONS          =  38.000

:FER  : F E R M I - ENERGY(TETRAH.M.)=   0.5247433476
:GMA  : POTENTIAL AND CHARGE CUT-OFF  12.00 Ry**.5




:POS001: ATOM   -1 X,Y,Z = 0.00000 0.00000 0.00000  MULT= 1  ZZ= 29.000  Cu1       

       LMMAX  7
       LM=   0 0  2 0  4 0  4 3  6 0  6 3  6 6

:CHA001: TOTAL VALENCE CHARGE INSIDE SPHERE   1 =  15.3490    (RMT=  2.0000 )
:PCS001: PARTIAL CHARGES SPHERE =  1 S,P,D,F,PZ,PXY, D-Z2,D-XY,X2Y2,D-XZ,YZ 
:QTL001: 0.2955 6.1660 8.8639 0.0180 2.1146 4.0514 0.0000 1.5421 3.6076 3.7141 0.0000 0.0000
        Q-s-low E-s-low   Q-p-low E-p-low   Q-d-low E-d-low   Q-f-low E-f-low
:EPL001:  0.0183 -0.8745    6.0020 -4.5312    0.0209 -0.8718    0.0028 -0.8665
        Q-s-hi  E-s-hi    Q-p-hi  E-p-hi    Q-d-hi  E-d-hi    Q-f-hi  E-f-hi 
:EPH001:  0.2771  0.2334    0.1640  0.2146    8.8430  0.3905    0.0152  0.2152
:VZZ001: EFG INSIDE SPHERE   1 =    -5.488924      UP TO R =   2.00000




:POS002: ATOM   -2 X,Y,Z = 0.50000 0.50000 0.50000  MULT= 1  ZZ= 13.000  Al1       

       LMMAX  7
       LM=   0 0  2 0  4 0  4 3  6 0  6 3  6 6

:CHA002: TOTAL VALENCE CHARGE INSIDE SPHERE   2 =   6.6656    (RMT=  1.8000 )
:PCS002: PARTIAL CHARGES SPHERE =  2 S,P,D,F,PZ,PXY, D-Z2,D-XY,X2Y2,D-XZ,YZ 
:QTL002: 0.2357 6.2697 0.1353 0.0205 2.0812 4.1885 0.0000 0.0101 0.0570 0.0682 0.0000 0.0000
        Q-s-low E-s-low   Q-p-low E-p-low   Q-d-low E-d-low   Q-f-low E-f-low
:EPL002:  0.0386 -0.9410    6.0156 -4.1455    0.0172 -0.8436    0.0030 -0.8662
        Q-s-hi  E-s-hi    Q-p-hi  E-p-hi    Q-d-hi  E-d-hi    Q-f-hi  E-f-hi 
:EPH002:  0.1971  0.0397    0.2541  0.1613    0.1181  0.2197    0.0176  0.2350
:VZZ002: EFG INSIDE SPHERE   2 =     1.178184      UP TO R =   1.80000




:POS003: ATOM   -3 X,Y,Z = 0.10979 0.10979 0.10979  MULT= 2  ZZ=  8.000  O 1       

       LMMAX 12
       LM=   0 0  1 0  2 0  3 0  3 3  4 0  4 3  5 0  5 3  6 0  6 3  6 6

:CHA003: TOTAL VALENCE CHARGE INSIDE SPHERE   3 =   4.5092    (RMT=  1.4000 )
:PCS003: PARTIAL CHARGES SPHERE =  3 S,P,D,F,PZ,PXY, D-Z2,D-XY,X2Y2,D-XZ,YZ 
:QTL003: 1.3693 3.1317 0.0072 0.0008 1.0052 2.1265 0.0000 0.0015 0.0013 0.0044 0.0000 0.0000
        Q-s-low E-s-low   Q-p-low E-p-low   Q-d-low E-d-low   Q-f-low E-f-low
:EPL003:  1.3130 -0.8734    0.0052 -1.1066    0.0003 -2.3412    0.0001 -2.1979
        Q-s-hi  E-s-hi    Q-p-hi  E-p-hi    Q-d-hi  E-d-hi    Q-f-hi  E-f-hi 
:EPH003:  0.0562  0.0966    3.1266  0.1946    0.0069  0.2948    0.0007  0.3275
:VZZ003: EFG INSIDE SPHERE   3 =     3.639628      UP TO R =   1.40000

:CHA  : TOTAL VALENCE CHARGE INSIDE UNIT CELL =      38.000000

:SUM  : SUM OF EIGENVALUES =         -49.836547799


        1.ATOM      Cu1                   5 CORE STATES
:1S 001: 1S                -649.548862845 Ry
:2S 001: 2S                 -77.263023530 Ry
:2PP001: 2P*                -67.576811400 Ry
:2P 001: 2P                 -66.070924120 Ry
:3S 001: 3S                  -7.672519108 Ry

        2.ATOM      Al1                   2 CORE STATES
:1S 002: 1S                -110.129507435 Ry
:2S 002: 2S                  -6.999590882 Ry

        3.ATOM      O 1                   1 CORE STATES
       CORE-FORCE in mRy/a.u. = |F|      Fx             Fy             Fz
:FCO003:   3.ATOM     50.083109479      0.000000000      0.000000000     50.083109479

:1S 003: 1S                 -36.508179702 Ry
:CINT001 Core Integral Atom   1   11.998463
:CINT002 Core Integral Atom   2    3.996056
:CINT003 Core Integral Atom   3    1.999999

       DENSITY AT NUCLEUS
        JATOM        VALENCE       SEMI-CORE          CORE           TOTAL
:RTO001:   1        8.520382        0.000000    22629.004922    22637.525304
:RTO002:   2        2.987912        0.000000     1487.113343     1490.101255
:RTO003:   3       14.512681        0.000000      303.809411      318.322092
     
       CHARGES OF NEW CHARGE DENSITY
:NTO   : INTERSTITIAL CHARGE =     6.967011
:NTO001: CHARGE SPHERE  1    =    27.347425
:NTO002: CHARGE SPHERE  2    =    10.661672
:NTO003: CHARGE SPHERE  3    =     6.509194

:NEC01: NUCLEAR AND ELECTRONIC CHARGE     58.00000    57.99450
     
       CHARGES OF OLD CHARGE DENSITY
:OTO   : INTERSTITIAL CHARGE =     6.727206
:OTO001: CHARGE SPHERE  1    =    27.345166
:OTO002: CHARGE SPHERE  2    =    10.697551
:OTO003: CHARGE SPHERE  3    =     6.615038

:NEC02: NUCLEAR AND ELECTRONIC CHARGE     58.00000    58.00000
     
       CONVERGENCE TEST
:DTO001: DIFFERENCE IN SPHERE  1 =  0.3856928
:DTO002: DIFFERENCE IN SPHERE  2 =  0.0866829
:DTO003: DIFFERENCE IN SPHERE  3 =  0.3279446

:DIS  :  CHARGE DISTANCE       ( 0.3856928 for atom    1 spin 1)      0.2820663
:BIG check (qbig,qrms,qtot)    0.129D+00   0.215D+00   0.282D+00
 
******************************************************
* MULTISECANT MIXING VER6 RELEASE 6.0 OPTIONS        *
* Standard Mode with controls                        *
* Regularization       1.000E-06                     *
* Trust Region Control Active                        *
* Max Number of Memory Steps    8                    *
******************************************************
 
:PLANE:  INTERSTITIAL TOTAL      1.72921 DISTAN  7.987E+00 % 
:CHARG:  CLM CHARGE   /ATOM     54.27090 DISTAN  7.543E-01 % 
 
 Step History DMIX, Red, Pred, Trust, FRMS, FABS
  2  3.5000E-02  1.0000E+00  1.0000E+00  1.0000E+00
  3  8.7500E-02  8.0653E-01  1.0000E+00  1.0000E+00
  4  9.6946E-02  1.0000E+00  6.6266E-01  2.5893E+00
  
:NORMS:  Nuclear, Spectral, Froebius, Shanno-Pua   0.2266E+01  0.2253E+01  0.2253E+01  0.3896E+00
:INFO :  Number of Memory Steps    3 Skipping    0
:INFO :  SLambda=    2.2659892  Max    2.2659892

Eigenvalues, unscaled except for SY+YY
   #     SY Real        SY Imag          SS             YY         SY+YY Real      SY+YY Imag
   1   1.168161E+00   0.000000E+00   5.906967E-01   2.998578E+00   5.645586E+00   0.000000E+00
   2  -5.225178E-17   0.000000E+00   1.536066E-16   2.785444E-07   2.957483E-07   0.000000E+00
   3   4.367729E-04   0.000000E+00   1.560735E-04   1.421854E-03   2.443496E-03   0.000000E+00
 
:INFO :  Singular value   5.646E+00 Weight  1.0000E+00 Projections   1.297E+01 -8.475E-03
:INFO :  Singular value   2.443E-03 Weight  1.0000E+00 Projections   1.789E+01 -3.600E+01
:INFO :  Singular value   2.957E-07 Weight  9.6340E-03 Projections  -3.062E+01  1.141E+01
 
:DIRM :  MEMORY 3/8 RESCALE   7.55 RED 0.541 PRED 0.663 NEXT 0.763
:INFO :  Blimit    2.072E+00  1.006E+00  7.844E-01  3.156E+00
:DIRP :  |MSR1|= 4.002E-01 |PRATT|= 1.043E+00 ANGLE=   8.6 DEGREES
:DIRQ :  |MSR1|= 3.844E-01 |PRATT|= 1.228E+00 ANGLE=  13.6 DEGREES
:DIR  :  |MSR1|= 5.549E-01 |PRATT|= 1.611E+00 ANGLE=  12.8 DEGREES
:MIX  :   MSE1   REGULARIZATION: 3.00E-06  GREED: 0.118  Newton 1.00  0.34                
     
       CHARGES OF MIXED CHARGE DENSITY
:CTO   : INTERSTITIAL CHARGE =     6.791584
:CTO001: CHARGE SPHERE  1    =    27.350724
:CTO002: CHARGE SPHERE  2    =    10.678408
:CTO003: CHARGE SPHERE  3    =     6.589642

:NEC03: NUCLEAR AND ELECTRONIC CHARGE     58.00000    58.00000

PW CHANGE     H    K    L       Current     Change     Residue
:PTO001:      0    0    0  6.58602552E-02 -4.431E-06  1.289E-04
:PTO002:     -1   -1   -1 -2.14229732E-02 -5.495E-04 -7.719E-04
:PTO003:     -2   -2   -2 -6.75616318E-03 -8.524E-04 -1.891E-03
:PTO004:     -1    0    0  1.15577696E-01  4.294E-04 -5.795E-04
:PTO005:     -1   -1    0  5.93089910E-02 -1.880E-03 -5.127E-03
:PTO006:     -2   -1   -1 -6.94024247E-02 -3.585E-03 -8.297E-03
:PTO007:     -2   -2   -1 -7.61435111E-02 -2.053E-03 -4.576E-03
:PTO008:     -3   -3   -3  3.16145748E-02  2.082E-04  1.710E-04
:PTO009:     -3   -2   -2  1.73708762E-02 -3.648E-04 -1.315E-03
:PTO010:     -3   -3   -2  5.22614723E-02 -1.204E-03 -3.993E-03
:PTO011:     -1    0    1  4.24523475E-02 -2.421E-03 -7.056E-03
:PTO012:     -4   -4   -4 -4.46519907E-03 -5.764E-04 -1.641E-03

:ENE  : ********** TOTAL ENERGY IN Ry =        -4097.05577586

       TOTAL FORCE IN mRy/a.u. = |F|     Fx             Fy             Fz     with/without FOR in case.in2
:FOR001:   1.ATOM          0.000          0.000          0.000          0.000 partial forces
:FOR002:   2.ATOM          0.000          0.000          0.000          0.000 partial forces
:FOR003:   3.ATOM        100.175          0.000          0.000       -100.175 partial forces
       TOTAL FORCE WITH RESPECT TO GLOBAL CARTESIAN COORDINATES:
:FCA001:   1.ATOM                         0.000          0.000          0.000 partial forces
:FCA002:   2.ATOM                         0.000          0.000          0.000 partial forces
:FCA003:   3.ATOM                         0.000          0.000       -100.175 partial forces
       TOTAL FORCE WITH RESPECT TO THE GLOBAL COORDINATE SYSTEM:
:FGL001:   1.ATOM                 0.000000000     0.000000000     0.000000000 partial forces
:FGL002:   2.ATOM                 0.000000000     0.000000000     0.000000000 partial forces
:FGL003:   3.ATOM              -100.175263499  -100.175263499  -100.175263499 partial forces


            ---------
:ITE005:  5. ITERATION
            ---------

:NATO :    3 INDEPENDENT AND    4 TOTAL ATOMS IN UNITCELL
       SUBSTANCE: CuAlO2 BenkoF84                                             

       LATTICE                      = R   
:POT  : POTENTIAL OPTION EX_PBE EC_PBE VX_PBE VC_PBE
:LAT  : LATTICE CONSTANTS=  5.40508  5.40508 32.03482
:VOL  : UNIT CELL VOLUME =     270.16967
       MODE OF CALCULATION IS       = RELA
       NON-SPINPOLARIZED CALCULATION
:IFFT  : FFT-parameters:   90   90   90 Factor: 2.00
       ATOMNUMBER=  1 Cu1        VCOUL-ZERO =  0.35602E+00
:EFG001:                        EFG         =    -3.34276   *10**21  V / m**2
                               V20  TOT/SRF=    -2.89492     0.13725
                               V22  TOT/SRF=     0.00000     0.00000
                               V22M TOT/SRF=     0.00000     0.00000
                               V21  TOT/SRF=     0.00000     0.00000
                               V21M TOT/SRF=     0.00000     0.00000

              1.67138    0.00000    0.00000        1.67138    0.00000    0.00000
              0.00000    1.67138    0.00000        0.00000    1.67138    0.00000
              0.00000    0.00000   -3.34276        0.00000    0.00000   -3.34276

         MAIN DIRECTIONS OF THE EFG   1.0000  0.0000  0.0000
                                      0.0000  1.0000  0.0000
                                      0.0000  0.0000  1.0000
:ANG001:  ANGLE WITH OLD X-AXIS =         0.0

:ETA001:                         ASYMM. ETA =     0.00000


       ATOMNUMBER=  2 Al1        VCOUL-ZERO = -0.83553E-01
:EFG002:                        EFG         =     0.77575   *10**21  V / m**2
                               V20  TOT/SRF=     0.67182    -0.03794
                               V22  TOT/SRF=     0.00000     0.00000
                               V22M TOT/SRF=     0.00000     0.00000
                               V21  TOT/SRF=     0.00000     0.00000
                               V21M TOT/SRF=     0.00000     0.00000

             -0.38788    0.00000    0.00000       -0.38788    0.00000    0.00000
              0.00000   -0.38788    0.00000        0.00000   -0.38788    0.00000
              0.00000    0.00000    0.77575        0.00000    0.00000    0.77575

         MAIN DIRECTIONS OF THE EFG   1.0000  0.0000  0.0000
                                      0.0000  1.0000  0.0000
                                      0.0000  0.0000  1.0000
:ANG002:  ANGLE WITH OLD X-AXIS =         0.0

:ETA002:                         ASYMM. ETA =     0.00000


       ATOMNUMBER=  3 O 1        VCOUL-ZERO =  0.17755E+00
:EFG003:                        EFG         =     2.40185   *10**21  V / m**2
                               V20  TOT/SRF=     2.08006     0.27748
                               V22  TOT/SRF=     0.00000     0.00000
                               V22M TOT/SRF=     0.00000     0.00000
                               V21  TOT/SRF=     0.00000     0.00000
                               V21M TOT/SRF=     0.00000     0.00000

             -1.20092    0.00000    0.00000       -1.20092    0.00000    0.00000
              0.00000   -1.20092    0.00000        0.00000   -1.20092    0.00000
              0.00000    0.00000    2.40185        0.00000    0.00000    2.40185

         MAIN DIRECTIONS OF THE EFG   1.0000  0.0000  0.0000
                                      0.0000  1.0000  0.0000
                                      0.0000  0.0000  1.0000
:ANG003:  ANGLE WITH OLD X-AXIS =         0.0

:ETA003:                         ASYMM. ETA =     0.00000


     HELLMANN-FEYNMAN-FORCE IN mRy/a.u. = |F|  Fx       Fy             Fz
:FHF001:   1.ATOM      0.000000000      0.000000000      0.000000000      0.000000000

     HELLMANN-FEYNMAN-FORCE IN mRy/a.u. = |F|  Fx       Fy             Fz
:FHF002:   2.ATOM      0.000000000      0.000000000      0.000000000      0.000000000

     HELLMANN-FEYNMAN-FORCE IN mRy/a.u. = |F|  Fx       Fy             Fz
:FHF003:   3.ATOM     89.760012817      0.000000000      0.000000000    -89.760012817

:FIT001: LUSE= 13 SIGMA OF V-XC FIT FOR ATOM  1  0.6982311E-02
:FIT001: LUSE= 13 SIGMA OF V-XC FIT FOR ATOM  1  0.6982311E-02
:FIT002: LUSE= 13 SIGMA OF V-XC FIT FOR ATOM  2  0.4907104E-02
:FIT002: LUSE= 13 SIGMA OF V-XC FIT FOR ATOM  2  0.4907104E-02
:FIT003: LUSE= 13 SIGMA OF V-XC FIT FOR ATOM  3  0.1243508E-03
:FIT003: LUSE= 13 SIGMA OF V-XC FIT FOR ATOM  3  0.1243508E-03
:DEN  : DENSITY INTEGRAL  =         -1796.34904063   (Ry)
       ELS_POTENTIAL_AT Z=0 and Z=0.5:   0.00000   0.00000
       ELS_POTENTIAL_AT Y=0 and Y=0.5:   0.00000   0.00000
:VZERO:v0,v0c,v0x  -0.80222   0.00000  -0.80222 v5,v5c,v5x  -0.80222   0.00000  -0.80222
:VZERY:v0,v0c,v0x  -0.80222   0.00000  -0.80222 v5,v5c,v5x  -0.80222   0.00000  -0.80222
:VZERX:v0,v0c,v0x  -2.29289  -1.07864  -1.21425 v5,v5c,v5x  -0.08649   0.27509  -0.36158

          ATOMIC SPHERE DEPENDENT PARAMETERS FOR ATOM  Cu1       
:e__0001: OVERALL ENERGY PARAMETER IS    0.3247
          OVERALL BASIS SET ON ATOM IS LAPW
:E1_0001: E( 1)=    0.3247
             APW+lo
:E1_0001: E( 1)=   -4.5960   E(BOTTOM)=   -4.663   E(TOP)=   -4.529  1  2   175
             LOCAL ORBITAL
:E2_0001: E( 2)=    0.3264   E(BOTTOM)=   -0.005   E(TOP)=    0.658  0  1   132
             APW+lo
:E0_0001: E( 0)=    0.3247
             APW+lo

          ATOMIC SPHERE DEPENDENT PARAMETERS FOR ATOM  Al1       
:e__0002: OVERALL ENERGY PARAMETER IS    0.3247
          OVERALL BASIS SET ON ATOM IS LAPW
:E1_0002: E( 1)=    0.3247
             APW+lo
:E1_0002: E( 1)=   -4.1964   E(BOTTOM)=   -4.299   E(TOP)=   -4.094  0  1   156
             LOCAL ORBITAL
:E0_0002: E( 0)=    0.3247
             APW+lo

          ATOMIC SPHERE DEPENDENT PARAMETERS FOR ATOM  O 1       
:e__0003: OVERALL ENERGY PARAMETER IS    0.3247
          OVERALL BASIS SET ON ATOM IS LAPW
:E0_0003: E( 0)=   -1.5500   E(BOTTOM)=   -2.562   E(TOP)= -200.000  1 -1   229
             APW+lo
:E0_0003: E( 0)=    0.7247
             LOCAL ORBITAL
:E1_0003: E( 1)=    0.3247
             APW+lo

       K=   0.00000   0.00000   0.00000            1
:RKM  : MATRIX SIZE   616LOs:  29  RKM= 6.98  WEIGHT= 1.00  PGR:    
       EIGENVALUES ARE:
:EIG00001:      -4.5876146   -4.5777353   -4.5777353   -4.1715238   -4.1704375
:EIG00006:      -4.1704375   -1.0214749   -0.8658092   -0.0878177    0.2161419
:EIG00011:       0.2412217    0.2412217    0.2513220    0.3327398    0.3327398
:EIG00016:       0.3587761    0.3587761    0.4210800    0.4210800    0.6450041
:EIG00021:       0.9621819    1.0458044    1.3724486    1.5306521    1.5306521
:EIG00026:       1.6360863    1.6360863    1.6373156    1.8875987    1.9569681
:EIG00031:       1.9569681
       ********************************************************

:KPT   :      NUMBER OF K-POINTS:    13
       Insulator, EF-inconsistency corrected
:GAP  :    0.1501 Ry =     2.041 eV   (provided you have a proper k-mesh)
         Bandranges (emin - emax) and occupancy:
:BAN00009:   9   -0.087818    0.014679  2.00000000
:BAN00010:  10   -0.033701    0.216142  2.00000000
:BAN00011:  11    0.047472    0.241222  2.00000000
:BAN00012:  12    0.164650    0.269010  2.00000000
:BAN00013:  13    0.191373    0.277831  2.00000000
:BAN00014:  14    0.215640    0.332740  2.00000000
:BAN00015:  15    0.285818    0.347314  2.00000000
:BAN00016:  16    0.358776    0.384531  2.00000000
:BAN00017:  17    0.358776    0.414285  2.00000000
:BAN00018:  18    0.391864    0.442006  2.00000000
:BAN00019:  19    0.412418    0.494906  2.00000000
:BAN00020:  20    0.645004    0.772383  0.00000000
:BAN00021:  21    0.844213    1.090614  0.00000000
:BAN00022:  22    1.040996    1.224068  0.00000000
:BAN00023:  23    1.141811    1.414656  0.00000000
:BAN00024:  24    1.280948    1.534296  0.00000000
        Energy to separate low and high energystates:   -0.13782


:NOE  : NUMBER OF ELECTRONS          =  38.000

:FER  : F E R M I - ENERGY(TETRAH.M.)=   0.4949059181
:GMA  : POTENTIAL AND CHARGE CUT-OFF  12.00 Ry**.5




:POS001: ATOM   -1 X,Y,Z = 0.00000 0.00000 0.00000  MULT= 1  ZZ= 29.000  Cu1       

       LMMAX  7
       LM=   0 0  2 0  4 0  4 3  6 0  6 3  6 6

:CHA001: TOTAL VALENCE CHARGE INSIDE SPHERE   1 =  15.4228    (RMT=  2.0000 )
:PCS001: PARTIAL CHARGES SPHERE =  1 S,P,D,F,PZ,PXY, D-Z2,D-XY,X2Y2,D-XZ,YZ 
:QTL001: 0.2831 6.1583 8.9577 0.0179 2.1126 4.0457 0.0000 1.5920 3.6342 3.7316 0.0000 0.0000
        Q-s-low E-s-low   Q-p-low E-p-low   Q-d-low E-d-low   Q-f-low E-f-low
:EPL001:  0.0180 -0.8907    6.0023 -4.5697    0.0211 -0.8880    0.0028 -0.8838
        Q-s-hi  E-s-hi    Q-p-hi  E-p-hi    Q-d-hi  E-d-hi    Q-f-hi  E-f-hi 
:EPH001:  0.2650  0.2195    0.1560  0.1953    8.9367  0.3628    0.0151  0.1965
:VZZ001: EFG INSIDE SPHERE   1 =    -6.951530      UP TO R =   2.00000




:POS002: ATOM   -2 X,Y,Z = 0.50000 0.50000 0.50000  MULT= 1  ZZ= 13.000  Al1       

       LMMAX  7
       LM=   0 0  2 0  4 0  4 3  6 0  6 3  6 6

:CHA002: TOTAL VALENCE CHARGE INSIDE SPHERE   2 =   6.6514    (RMT=  1.8000 )
:PCS002: PARTIAL CHARGES SPHERE =  2 S,P,D,F,PZ,PXY, D-Z2,D-XY,X2Y2,D-XZ,YZ 
:QTL002: 0.2308 6.2629 0.1329 0.0204 2.0789 4.1840 0.0000 0.0099 0.0560 0.0670 0.0000 0.0000
        Q-s-low E-s-low   Q-p-low E-p-low   Q-d-low E-d-low   Q-f-low E-f-low
:EPL002:  0.0376 -0.9557    6.0146 -4.1476    0.0170 -0.8603    0.0030 -0.8826
        Q-s-hi  E-s-hi    Q-p-hi  E-p-hi    Q-d-hi  E-d-hi    Q-f-hi  E-f-hi 
:EPH002:  0.1932  0.0262    0.2483  0.1461    0.1159  0.2039    0.0175  0.2191
:VZZ002: EFG INSIDE SPHERE   2 =     1.194984      UP TO R =   1.80000




:POS003: ATOM   -3 X,Y,Z = 0.10979 0.10979 0.10979  MULT= 2  ZZ=  8.000  O 1       

       LMMAX 12
       LM=   0 0  1 0  2 0  3 0  3 3  4 0  4 3  5 0  5 3  6 0  6 3  6 6

:CHA003: TOTAL VALENCE CHARGE INSIDE SPHERE   3 =   4.5529    (RMT=  1.4000 )
:PCS003: PARTIAL CHARGES SPHERE =  3 S,P,D,F,PZ,PXY, D-Z2,D-XY,X2Y2,D-XZ,YZ 
:QTL003: 1.3744 3.1707 0.0069 0.0008 1.0189 2.1519 0.0000 0.0015 0.0013 0.0041 0.0000 0.0000
        Q-s-low E-s-low   Q-p-low E-p-low   Q-d-low E-d-low   Q-f-low E-f-low
:EPL003:  1.3204 -0.8895    0.0049 -1.1327    0.0003 -2.3688    0.0001 -2.2136
        Q-s-hi  E-s-hi    Q-p-hi  E-p-hi    Q-d-hi  E-d-hi    Q-f-hi  E-f-hi 
:EPH003:  0.0540  0.0848    3.1658  0.1791    0.0066  0.2712    0.0007  0.3024
:VZZ003: EFG INSIDE SPHERE   3 =     3.599118      UP TO R =   1.40000

:CHA  : TOTAL VALENCE CHARGE INSIDE UNIT CELL =      38.000000

:SUM  : SUM OF EIGENVALUES =         -50.578034252


        1.ATOM      Cu1                   5 CORE STATES
:1S 001: 1S                -649.666512458 Ry
:2S 001: 2S                 -77.362817997 Ry
:2PP001: 2P*                -67.679938203 Ry
:2P 001: 2P                 -66.173681852 Ry
:3S 001: 3S                  -7.713417260 Ry

        2.ATOM      Al1                   2 CORE STATES
:1S 002: 1S                -110.118989916 Ry
:2S 002: 2S                  -7.002152718 Ry

        3.ATOM      O 1                   1 CORE STATES
       CORE-FORCE in mRy/a.u. = |F|      Fx             Fy             Fz
:FCO003:   3.ATOM     19.741247361      0.000000000      0.000000000     19.741247361

:1S 003: 1S                 -36.583987265 Ry
:CINT001 Core Integral Atom   1   11.998500
:CINT002 Core Integral Atom   2    3.996060
:CINT003 Core Integral Atom   3    1.999999

       DENSITY AT NUCLEUS
        JATOM        VALENCE       SEMI-CORE          CORE           TOTAL
:RTO001:   1        8.112134        0.000000    22630.530616    22638.642750
:RTO002:   2        2.920515        0.000000     1487.047336     1489.967850
:RTO003:   3       14.631719        0.000000      303.910924      318.542643
     
       CHARGES OF NEW CHARGE DENSITY
:NTO   : INTERSTITIAL CHARGE =     6.819861
:NTO001: CHARGE SPHERE  1    =    27.421273
:NTO002: CHARGE SPHERE  2    =    10.647507
:NTO003: CHARGE SPHERE  3    =     6.552948

:NEC01: NUCLEAR AND ELECTRONIC CHARGE     58.00000    57.99454
     
       CHARGES OF OLD CHARGE DENSITY
:OTO   : INTERSTITIAL CHARGE =     6.791584
:OTO001: CHARGE SPHERE  1    =    27.350724
:OTO002: CHARGE SPHERE  2    =    10.678408
:OTO003: CHARGE SPHERE  3    =     6.589642

:NEC02: NUCLEAR AND ELECTRONIC CHARGE     58.00000    58.00000
     
       CONVERGENCE TEST
:DTO001: DIFFERENCE IN SPHERE  1 =  0.0767114
:DTO002: DIFFERENCE IN SPHERE  2 =  0.0476321
:DTO003: DIFFERENCE IN SPHERE  3 =  0.1756599

:DIS  :  CHARGE DISTANCE       ( 0.1756599 for atom    3 spin 1)      0.1189158
:BIG check (qbig,qrms,qtot)    0.586D-01   0.935D-01   0.119D+00
 
******************************************************
* MULTISECANT MIXING VER6 RELEASE 6.0 OPTIONS        *
* Standard Mode with controls                        *
* Regularization       1.000E-06                     *
* Trust Region Control Active                        *
* Max Number of Memory Steps    8                    *
******************************************************
 
:PLANE:  INTERSTITIAL TOTAL      1.73443 DISTAN  4.961E+00 % 
:CHARG:  CLM CHARGE   /ATOM     54.23859 DISTAN  3.478E-01 % 
 
 Step History DMIX, Red, Pred, Trust, FRMS, FABS
  2  3.5000E-02  1.0000E+00  1.0000E+00  1.0000E+00
  3  8.7500E-02  8.0653E-01  1.0000E+00  1.0000E+00
  4  9.6946E-02  5.4136E-01  6.6266E-01  2.5893E+00
  5  1.1766E-01  1.0000E+00  7.6314E-01  3.1557E+00
  
:NORMS:  Nuclear, Spectral, Froebius, Shanno-Pua   0.1846E+01  0.1631E+01  0.1745E+01  0.4683E+00
:INFO :  Number of Memory Steps    4 Skipping    0
:INFO :  SLambda=    1.8459489  Max    1.8459489

Eigenvalues, unscaled except for SY+YY
   #     SY Real        SY Imag          SS             YY         SY+YY Real      SY+YY Imag
   1   1.513388E+00   0.000000E+00   1.144354E+00   3.044704E+00   5.712968E+00   0.000000E+00
   2   4.477110E-01   0.000000E+00   1.687573E-01   9.550003E-01   1.906772E+00   0.000000E+00
   3  -1.655279E-16   0.000000E+00   3.026686E-16   3.182916E-07   3.198047E-07   0.000000E+00
   4   6.780432E-05   0.000000E+00   1.391652E-05   2.953060E-04   4.730336E-04   0.000000E+00
 
:INFO :  Singular value   5.716E+00 Weight  1.0000E+00 Projections  -2.243E+01  2.171E-01
:INFO :  Singular value   1.906E+00 Weight  1.0000E+00 Projections  -6.800E+00  6.470E-01
:INFO :  Singular value   4.730E-04 Weight  9.9996E-01 Projections   2.818E+01 -3.683E+01
:INFO :  Singular value   3.198E-07 Weight  1.0912E-02 Projections  -4.763E+00 -3.055E+00
 
:DIRM :  MEMORY 4/8 RESCALE   7.35 RED 0.533 PRED 0.763 NEXT 0.358
:INFO :  Blimit    2.890E+00  1.132E+00  1.000E+00  4.527E+00
:DIRP :  |MSR1|= 7.115E-01 |PRATT|= 6.322E-01 ANGLE=  12.6 DEGREES
:DIRQ :  |MSR1|= 5.075E-01 |PRATT|= 5.660E-01 ANGLE=  31.1 DEGREES
:DIR  :  |MSR1|= 8.740E-01 |PRATT|= 8.485E-01 ANGLE=  22.5 DEGREES
:MIX  :   MSE1   REGULARIZATION: 3.04E-06  GREED: 0.153  Newton 1.00  1.03                
     
       CHARGES OF MIXED CHARGE DENSITY
:CTO   : INTERSTITIAL CHARGE =     6.791923
:CTO001: CHARGE SPHERE  1    =    27.389700
:CTO002: CHARGE SPHERE  2    =    10.629994
:CTO003: CHARGE SPHERE  3    =     6.594191

:NEC03: NUCLEAR AND ELECTRONIC CHARGE     58.00000    58.00000

PW CHANGE     H    K    L       Current     Change     Residue
[...]
:PTO001:      0    0    0  6.52295074E-02 -2.769E-10 -9.132E-10
:PTO002:     -1   -1   -1 -2.24053765E-02 -4.033E-10 -2.762E-09
:PTO003:     -2   -2   -2 -8.33826557E-03  2.785E-10  6.670E-10
:PTO004:     -1    0    0  1.15360687E-01 -7.753E-10 -1.771E-09
:PTO005:     -1   -1    0  5.61182798E-02  3.741E-10  2.137E-09
:PTO006:     -2   -1   -1 -7.52004438E-02  1.635E-09  4.404E-09
:PTO007:     -2   -2   -1 -7.98751104E-02  1.154E-09  1.863E-09
:PTO008:     -3   -3   -3  3.17860181E-02 -3.690E-10 -8.931E-10
:PTO009:     -3   -2   -2  1.63357736E-02 -7.701E-10 -3.690E-09
:PTO010:     -3   -3   -2  5.00752549E-02 -8.471E-10 -2.807E-09
:PTO011:     -1    0    1  3.87080820E-02 -1.150E-10  5.768E-10
:PTO012:     -4   -4   -4 -5.43241744E-03  3.857E-10  1.342E-09

:ENE  : ********** TOTAL ENERGY IN Ry =        -4097.04254632

       TOTAL FORCE IN mRy/a.u. = |F|     Fx             Fy             Fz     with/without FOR in case.in2
:FOR001:   1.ATOM          0.000          0.000          0.000          0.000 partial forces
:FOR002:   2.ATOM          0.000          0.000          0.000          0.000 partial forces
:FOR003:   3.ATOM          5.393          0.000          0.000         -5.393 partial forces
       TOTAL FORCE WITH RESPECT TO GLOBAL CARTESIAN COORDINATES:
:FCA001:   1.ATOM                         0.000          0.000          0.000 partial forces
:FCA002:   2.ATOM                         0.000          0.000          0.000 partial forces
:FCA003:   3.ATOM                         0.000          0.000         -5.393 partial forces
       TOTAL FORCE WITH RESPECT TO THE GLOBAL COORDINATE SYSTEM:
:FGL001:   1.ATOM                 0.000000000     0.000000000     0.000000000 partial forces
:FGL002:   2.ATOM                 0.000000000     0.000000000     0.000000000 partial forces
:FGL003:   3.ATOM                -5.393309528    -5.393309528    -5.393309528 partial forces


            ---------
:ITE017: 17. ITERATION
            ---------

:NATO :    3 INDEPENDENT AND    4 TOTAL ATOMS IN UNITCELL
       SUBSTANCE: CuAlO2 BenkoF84                                             

       LATTICE                      = R   
:POT  : POTENTIAL OPTION EX_PBE EC_PBE VX_PBE VC_PBE
:LAT  : LATTICE CONSTANTS=  5.40508  5.40508 32.03482
:VOL  : UNIT CELL VOLUME =     270.16967
       MODE OF CALCULATION IS       = RELA
       NON-SPINPOLARIZED CALCULATION
:IFFT  : FFT-parameters:   90   90   90 Factor: 2.00
       ATOMNUMBER=  1 Cu1        VCOUL-ZERO =  0.37035E+00
:EFG001:                        EFG         =    -5.90377   *10**21  V / m**2
                               V20  TOT/SRF=    -5.11282     0.14425
                               V22  TOT/SRF=     0.00000     0.00000
                               V22M TOT/SRF=     0.00000     0.00000
                               V21  TOT/SRF=     0.00000     0.00000
                               V21M TOT/SRF=     0.00000     0.00000

              2.95189    0.00000    0.00000        2.95189    0.00000    0.00000
              0.00000    2.95189    0.00000        0.00000    2.95189    0.00000
              0.00000    0.00000   -5.90377        0.00000    0.00000   -5.90377

         MAIN DIRECTIONS OF THE EFG   1.0000  0.0000  0.0000
                                      0.0000  1.0000  0.0000
                                      0.0000  0.0000  1.0000
:ANG001:  ANGLE WITH OLD X-AXIS =         0.0

:ETA001:                         ASYMM. ETA =     0.00000


       ATOMNUMBER=  2 Al1        VCOUL-ZERO = -0.95538E-01
:EFG002:                        EFG         =     1.14509   *10**21  V / m**2
                               V20  TOT/SRF=     0.99167    -0.02998
                               V22  TOT/SRF=     0.00000     0.00000
                               V22M TOT/SRF=     0.00000     0.00000
                               V21  TOT/SRF=     0.00000     0.00000
                               V21M TOT/SRF=     0.00000     0.00000

             -0.57254    0.00000    0.00000       -0.57254    0.00000    0.00000
              0.00000   -0.57254    0.00000        0.00000   -0.57254    0.00000
              0.00000    0.00000    1.14509        0.00000    0.00000    1.14509

         MAIN DIRECTIONS OF THE EFG   1.0000  0.0000  0.0000
                                      0.0000  1.0000  0.0000
                                      0.0000  0.0000  1.0000
:ANG002:  ANGLE WITH OLD X-AXIS =         0.0

:ETA002:                         ASYMM. ETA =     0.00000


       ATOMNUMBER=  3 O 1        VCOUL-ZERO =  0.19118E+00
:EFG003:                        EFG         =     3.52803   *10**21  V / m**2
                               V20  TOT/SRF=     3.05536     0.29149
                               V22  TOT/SRF=     0.00000     0.00000
                               V22M TOT/SRF=     0.00000     0.00000
                               V21  TOT/SRF=     0.00000     0.00000
                               V21M TOT/SRF=     0.00000     0.00000

             -1.76401    0.00000    0.00000       -1.76401    0.00000    0.00000
              0.00000   -1.76401    0.00000        0.00000   -1.76401    0.00000
              0.00000    0.00000    3.52803        0.00000    0.00000    3.52803

         MAIN DIRECTIONS OF THE EFG   1.0000  0.0000  0.0000
                                      0.0000  1.0000  0.0000
                                      0.0000  0.0000  1.0000
:ANG003:  ANGLE WITH OLD X-AXIS =         0.0

:ETA003:                         ASYMM. ETA =     0.00000


     HELLMANN-FEYNMAN-FORCE IN mRy/a.u. = |F|  Fx       Fy             Fz
:FHF001:   1.ATOM      0.000000000      0.000000000      0.000000000      0.000000000

     HELLMANN-FEYNMAN-FORCE IN mRy/a.u. = |F|  Fx       Fy             Fz
:FHF002:   2.ATOM      0.000000000      0.000000000      0.000000000      0.000000000

     HELLMANN-FEYNMAN-FORCE IN mRy/a.u. = |F|  Fx       Fy             Fz
:FHF003:   3.ATOM     13.109324758      0.000000000      0.000000000    -13.109324758

:FIT001: LUSE= 13 SIGMA OF V-XC FIT FOR ATOM  1  0.6996163E-02
:FIT001: LUSE= 13 SIGMA OF V-XC FIT FOR ATOM  1  0.6996163E-02
:FIT002: LUSE= 13 SIGMA OF V-XC FIT FOR ATOM  2  0.8315414E-02
:FIT002: LUSE= 13 SIGMA OF V-XC FIT FOR ATOM  2  0.8315414E-02
:FIT003: LUSE= 13 SIGMA OF V-XC FIT FOR ATOM  3  0.2401955E-03
:FIT003: LUSE= 13 SIGMA OF V-XC FIT FOR ATOM  3  0.2401955E-03
:DEN  : DENSITY INTEGRAL  =         -1796.22242735   (Ry)
       ELS_POTENTIAL_AT Z=0 and Z=0.5:   0.00000   0.00000
       ELS_POTENTIAL_AT Y=0 and Y=0.5:   0.00000   0.00000
:VZERO:v0,v0c,v0x  -0.79350   0.00000  -0.79350 v5,v5c,v5x  -0.79350   0.00000  -0.79350
:VZERY:v0,v0c,v0x  -0.79350   0.00000  -0.79350 v5,v5c,v5x  -0.79350   0.00000  -0.79350
:VZERX:v0,v0c,v0x  -2.25247  -1.06365  -1.18882 v5,v5c,v5x  -0.07026   0.25683  -0.32709

          ATOMIC SPHERE DEPENDENT PARAMETERS FOR ATOM  Cu1       
:e__0001: OVERALL ENERGY PARAMETER IS    0.3110
          OVERALL BASIS SET ON ATOM IS LAPW
:E1_0001: E( 1)=    0.3110
             APW+lo
:E1_0001: E( 1)=   -4.5714   E(BOTTOM)=   -4.639   E(TOP)=   -4.504  1  2   180
             LOCAL ORBITAL
:E2_0001: E( 2)=    0.3497   E(BOTTOM)=    0.017   E(TOP)=    0.682  0  1   131
             APW+lo
:E0_0001: E( 0)=    0.3110
             APW+lo

          ATOMIC SPHERE DEPENDENT PARAMETERS FOR ATOM  Al1       
:e__0002: OVERALL ENERGY PARAMETER IS    0.3110
          OVERALL BASIS SET ON ATOM IS LAPW
:E1_0002: E( 1)=    0.3110
             APW+lo
:E1_0002: E( 1)=   -4.2178   E(BOTTOM)=   -4.320   E(TOP)=   -4.116  0  1   151
             LOCAL ORBITAL
:E0_0002: E( 0)=    0.3110
             APW+lo

          ATOMIC SPHERE DEPENDENT PARAMETERS FOR ATOM  O 1       
:e__0003: OVERALL ENERGY PARAMETER IS    0.3110
          OVERALL BASIS SET ON ATOM IS LAPW
:E0_0003: E( 0)=   -1.5500   E(BOTTOM)=   -2.573   E(TOP)= -200.000  1 -1   232
             APW+lo
:E0_0003: E( 0)=    0.7110
             LOCAL ORBITAL
:E1_0003: E( 1)=    0.3110
             APW+lo

       K=   0.00000   0.00000   0.00000            1
:RKM  : MATRIX SIZE   616LOs:  29  RKM= 6.98  WEIGHT= 1.00  PGR:    
       EIGENVALUES ARE:
:EIG00001:      -4.5659072   -4.5516407   -4.5516407   -4.1933430   -4.1918902
:EIG00006:      -4.1918902   -1.0315679   -0.8768867   -0.0920141    0.2317803
:EIG00011:       0.2332158    0.2332158    0.2410246    0.3187392    0.3187392
:EIG00016:       0.3830546    0.3830546    0.4379920    0.4379920    0.6526751
:EIG00021:       0.9621311    1.0428496    1.3767866    1.5258324    1.5258324
:EIG00026:       1.6338250    1.6338250    1.6345630    1.8972288    1.9688412
:EIG00031:       1.9688412
       ********************************************************

:KPT   :      NUMBER OF K-POINTS:    13
       Insulator, EF-inconsistency corrected
:GAP  :    0.1417 Ry =     1.927 eV   (provided you have a proper k-mesh)
         Bandranges (emin - emax) and occupancy:
:BAN00009:   9   -0.092014    0.006451  2.00000000
:BAN00010:  10   -0.039832    0.231780  2.00000000
:BAN00011:  11    0.040149    0.246413  2.00000000
:BAN00012:  12    0.159220    0.255538  2.00000000
:BAN00013:  13    0.183113    0.269759  2.00000000
:BAN00014:  14    0.208428    0.318739  2.00000000
:BAN00015:  15    0.282311    0.368398  2.00000000
:BAN00016:  16    0.382696    0.402643  2.00000000
:BAN00017:  17    0.383055    0.439366  2.00000000
:BAN00018:  18    0.410676    0.453870  2.00000000
:BAN00019:  19    0.430510    0.510991  2.00000000
:BAN00020:  20    0.652675    0.780386  0.00000000
:BAN00021:  21    0.843932    1.101575  0.00000000
:BAN00022:  22    1.040463    1.216439  0.00000000
:BAN00023:  23    1.142685    1.411870  0.00000000
:BAN00024:  24    1.283276    1.529552  0.00000000
        Energy to separate low and high energystates:   -0.14201


:NOE  : NUMBER OF ELECTRONS          =  38.000

:FER  : F E R M I - ENERGY(TETRAH.M.)=   0.5109912864
:GMA  : POTENTIAL AND CHARGE CUT-OFF  12.00 Ry**.5




:POS001: ATOM   -1 X,Y,Z = 0.00000 0.00000 0.00000  MULT= 1  ZZ= 29.000  Cu1       

       LMMAX  7
       LM=   0 0  2 0  4 0  4 3  6 0  6 3  6 6

:CHA001: TOTAL VALENCE CHARGE INSIDE SPHERE   1 =  15.3774    (RMT=  2.0000 )
:PCS001: PARTIAL CHARGES SPHERE =  1 S,P,D,F,PZ,PXY, D-Z2,D-XY,X2Y2,D-XZ,YZ 
:QTL001: 0.2761 6.1545 8.9231 0.0179 2.1096 4.0450 0.0000 1.5758 3.6222 3.7251 0.0000 0.0000
        Q-s-low E-s-low   Q-p-low E-p-low   Q-d-low E-d-low   Q-f-low E-f-low
:EPL001:  0.0174 -0.9018    6.0018 -4.5454    0.0204 -0.8993    0.0028 -0.8963
        Q-s-hi  E-s-hi    Q-p-hi  E-p-hi    Q-d-hi  E-d-hi    Q-f-hi  E-f-hi 
:EPH001:  0.2587  0.2231    0.1527  0.1928    8.9027  0.3851    0.0151  0.1878
:VZZ001: EFG INSIDE SPHERE   1 =    -6.153280      UP TO R =   2.00000




:POS002: ATOM   -2 X,Y,Z = 0.50000 0.50000 0.50000  MULT= 1  ZZ= 13.000  Al1       

       LMMAX  7
       LM=   0 0  2 0  4 0  4 3  6 0  6 3  6 6

:CHA002: TOTAL VALENCE CHARGE INSIDE SPHERE   2 =   6.6488    (RMT=  1.8000 )
:PCS002: PARTIAL CHARGES SPHERE =  2 S,P,D,F,PZ,PXY, D-Z2,D-XY,X2Y2,D-XZ,YZ 
:QTL002: 0.2298 6.2614 0.1325 0.0205 2.0782 4.1832 0.0000 0.0098 0.0559 0.0669 0.0000 0.0000
        Q-s-low E-s-low   Q-p-low E-p-low   Q-d-low E-d-low   Q-f-low E-f-low
:EPL002:  0.0374 -0.9665    6.0146 -4.1692    0.0170 -0.8719    0.0030 -0.8942
        Q-s-hi  E-s-hi    Q-p-hi  E-p-hi    Q-d-hi  E-d-hi    Q-f-hi  E-f-hi 
:EPH002:  0.1924  0.0171    0.2467  0.1358    0.1155  0.1935    0.0175  0.2085
:VZZ002: EFG INSIDE SPHERE   2 =     1.245958      UP TO R =   1.80000




:POS003: ATOM   -3 X,Y,Z = 0.10979 0.10979 0.10979  MULT= 2  ZZ=  8.000  O 1       

       LMMAX 12
       LM=   0 0  1 0  2 0  3 0  3 3  4 0  4 3  5 0  5 3  6 0  6 3  6 6

:CHA003: TOTAL VALENCE CHARGE INSIDE SPHERE   3 =   4.5905    (RMT=  1.4000 )
:PCS003: PARTIAL CHARGES SPHERE =  3 S,P,D,F,PZ,PXY, D-Z2,D-XY,X2Y2,D-XZ,YZ 
:QTL003: 1.3775 3.2050 0.0070 0.0008 1.0347 2.1703 0.0000 0.0015 0.0013 0.0042 0.0000 0.0000
        Q-s-low E-s-low   Q-p-low E-p-low   Q-d-low E-d-low   Q-f-low E-f-low
:EPL003:  1.3245 -0.9008    0.0049 -1.1418    0.0003 -2.3871    0.0001 -2.2378
        Q-s-hi  E-s-hi    Q-p-hi  E-p-hi    Q-d-hi  E-d-hi    Q-f-hi  E-f-hi 
:EPH003:  0.0530  0.0760    3.2001  0.1682    0.0067  0.2793    0.0007  0.3155
:VZZ003: EFG INSIDE SPHERE   3 =     3.202523      UP TO R =   1.40000

:CHA  : TOTAL VALENCE CHARGE INSIDE UNIT CELL =      38.000000

:SUM  : SUM OF EIGENVALUES =         -50.507361809


        1.ATOM      Cu1                   5 CORE STATES
:1S 001: 1S                -649.652189687 Ry
:2S 001: 2S                 -77.343797674 Ry
:2PP001: 2P*                -67.661396431 Ry
:2P 001: 2P                 -66.155077719 Ry
:3S 001: 3S                  -7.688559487 Ry

        2.ATOM      Al1                   2 CORE STATES
:1S 002: 1S                -110.140140123 Ry
:2S 002: 2S                  -7.024292452 Ry

        3.ATOM      O 1                   1 CORE STATES
       CORE-FORCE in mRy/a.u. = |F|      Fx             Fy             Fz
:FCO003:   3.ATOM      7.715909235      0.000000000      0.000000000      7.715909235

:1S 003: 1S                 -36.667923644 Ry
:CINT001 Core Integral Atom   1   11.998494
:CINT002 Core Integral Atom   2    3.996086
:CINT003 Core Integral Atom   3    1.999999

       DENSITY AT NUCLEUS
        JATOM        VALENCE       SEMI-CORE          CORE           TOTAL
:RTO001:   1        7.892238        0.000000    22630.690491    22638.582729
:RTO002:   2        2.907934        0.000000     1487.082272     1489.990206
:RTO003:   3       14.710333        0.000000      304.058243      318.768576
     
       CHARGES OF NEW CHARGE DENSITY
:NTO   : INTERSTITIAL CHARGE =     6.792886
:NTO001: CHARGE SPHERE  1    =    27.375881
:NTO002: CHARGE SPHERE  2    =    10.644873
:NTO003: CHARGE SPHERE  3    =     6.590459

:NEC01: NUCLEAR AND ELECTRONIC CHARGE     58.00000    57.99456
     
       CHARGES OF OLD CHARGE DENSITY
:OTO   : INTERSTITIAL CHARGE =     6.798329
:OTO001: CHARGE SPHERE  1    =    27.375881
:OTO002: CHARGE SPHERE  2    =    10.644873
:OTO003: CHARGE SPHERE  3    =     6.590459

:NEC02: NUCLEAR AND ELECTRONIC CHARGE     58.00000    58.00000
     
       CONVERGENCE TEST
:DTO001: DIFFERENCE IN SPHERE  1 =  0.0000002
:DTO002: DIFFERENCE IN SPHERE  2 =  0.0000002
:DTO003: DIFFERENCE IN SPHERE  3 =  0.0000005

:DIS  :  CHARGE DISTANCE       ( 0.0000005 for atom    3 spin 1)      0.0000004
:BIG check (qbig,qrms,qtot)    0.180D-06   0.291D-06   0.377D-06
 
******************************************************
* MULTISECANT MIXING VER6 RELEASE 6.0 OPTIONS        *
* Standard Mode with controls                        *
* Regularization       1.000E-06                     *
* Trust Region Control Active                        *
* Max Number of Memory Steps    8                    *
******************************************************
 
:PLANE:  INTERSTITIAL TOTAL      1.73773 DISTAN  4.597E-06 % 
:CHARG:  CLM CHARGE   /ATOM     54.22843 DISTAN  5.744E-07 % 
 
 Step History DMIX, Red, Pred, Trust, FRMS, FABS
 10  2.0000E-01  5.1857E-01  3.0396E-01  5.4111E+00
 11  2.0000E-01  3.1774E-01  1.8952E-01  5.5925E+00
 12  2.0000E-01  3.7850E-01  3.6119E-01  5.3929E+00
 13  2.0000E-01  1.2090E-01  1.3935E-01  4.7744E+00
 14  2.0000E-01  2.5152E-01  2.3854E-01  4.4128E+00
 15  2.0000E-01  4.8135E-01  6.8922E-01  4.2616E+00
 16  2.0000E-01  1.0910E-01  1.4323E-01  4.4541E+00
 17  2.0000E-01  1.0000E+00  9.9632E-01  4.2783E+00
  
:NORMS:  Nuclear, Spectral, Froebius, Shanno-Pua   0.1245E+01  0.1172E+01  0.1195E+01  0.7769E+00
:INFO :  Number of Memory Steps    8 Skipping    8
:INFO :  SLambda=    1.3333333  Max    1.3333333

Eigenvalues, unscaled except for SY+YY
   #     SY Real        SY Imag          SS             YY         SY+YY Real      SY+YY Imag
   1   2.387254E+00   0.000000E+00   2.214575E+00   3.043759E+00   6.148424E+00   0.000000E+00
   2   1.579087E+00   0.000000E+00   1.540517E+00   1.727472E+00   3.809597E+00   0.000000E+00
   3   8.698460E-01   0.000000E+00   7.104111E-01   1.313547E+00   2.537528E+00   0.000000E+00
   4   6.495880E-01   0.000000E+00   5.646931E-01   7.628632E-01   1.645448E+00   0.000000E+00
   5   4.634405E-01   0.000000E+00   3.186642E-01   6.804491E-01   1.312498E+00   0.000000E+00
   6   2.088923E-02   0.000000E+00   8.187804E-03   4.189369E-02   7.598503E-02   0.000000E+00
   7   1.069850E-01   0.000000E+00   5.981138E-02   1.998774E-01   3.453423E-01   0.000000E+00
   8   2.042437E-01   0.000000E+00   1.837363E-01   2.301392E-01   5.002879E-01   0.000000E+00
 
:INFO :  Singular value   6.171E+00 Weight  1.0000E+00 Projections   9.744E-09 -8.124E-08
:INFO :  Singular value   3.811E+00 Weight  1.0000E+00 Projections   3.836E-07 -3.020E-07
:INFO :  Singular value   2.532E+00 Weight  1.0000E+00 Projections  -1.078E-06 -5.501E-07
:INFO :  Singular value   1.645E+00 Weight  1.0000E+00 Projections   7.897E-07  7.012E-07
:INFO :  Singular value   1.312E+00 Weight  1.0000E+00 Projections   1.973E-09  1.003E-06
:INFO :  Singular value   5.003E-01 Weight  1.0000E+00 Projections  -3.099E-07  6.326E-07
:INFO :  Singular value   3.449E-01 Weight  1.0000E+00 Projections   4.640E-07 -5.881E-08
:INFO :  Singular value   7.598E-02 Weight  1.0000E+00 Projections  -1.405E-06 -1.384E-06
 
:DIRM :  MEMORY 8/8 RESCALE  11.14 RED 0.778 PRED 0.996 NEXT 0.256
:INFO :  Blimit    4.508E+00  1.137E+00  1.000E+00  4.549E+00
:DIRP :  |MSR1|= 8.069E-07 |PRATT|= 8.897E-07 ANGLE=   7.4 DEGREES
:DIRQ :  |MSR1|= 0.000E+00 |PRATT|= 0.000E+00 ANGLE=   0.0 DEGREES
:DIR  :  |MSR1|= 1.178E-06 |PRATT|= 1.290E-06 ANGLE=   8.5 DEGREES
:MIX  :   MSE1   REGULARIZATION: 3.04E-06  GREED: 0.200  Newton 1.00  0.91                
     
       CHARGES OF MIXED CHARGE DENSITY
:CTO   : INTERSTITIAL CHARGE =     6.798329
:CTO001: CHARGE SPHERE  1    =    27.375881
:CTO002: CHARGE SPHERE  2    =    10.644873
:CTO003: CHARGE SPHERE  3    =     6.590459

:NEC03: NUCLEAR AND ELECTRONIC CHARGE     58.00000    58.00000

PW CHANGE     H    K    L       Current     Change     Residue
:PTO001:      0    0    0  6.52295070E-02 -3.984E-10 -5.077E-10
:PTO002:     -1   -1   -1 -2.24053783E-02 -1.758E-09 -2.090E-09
:PTO003:     -2   -2   -2 -8.33826541E-03  1.627E-10  2.995E-10
:PTO004:     -1    0    0  1.15360686E-01 -8.378E-10 -1.127E-09
:PTO005:     -1   -1    0  5.61182811E-02  1.379E-09  1.624E-09
:PTO006:     -2   -1   -1 -7.52004412E-02  2.598E-09  2.743E-09
:PTO007:     -2   -2   -1 -7.98751094E-02  9.776E-10  7.407E-10
:PTO008:     -3   -3   -3  3.17860175E-02 -5.172E-10 -5.555E-10
:PTO009:     -3   -2   -2  1.63357709E-02 -2.784E-09 -3.017E-09
:PTO010:     -3   -3   -2  5.00752528E-02 -2.100E-09 -2.095E-09
:PTO011:     -1    0    1  3.87080821E-02  1.035E-10  5.635E-10
:PTO012:     -4   -4   -4 -5.43241655E-03  8.961E-10  8.731E-10

:ENE  : ********** TOTAL ENERGY IN Ry =        -4097.04254632

       TOTAL FORCE IN mRy/a.u. = |F|     Fx             Fy             Fz     with/without FOR in case.in2
:FOR001:   1.ATOM          0.000          0.000          0.000          0.000 partial forces
:FOR002:   2.ATOM          0.000          0.000          0.000          0.000 partial forces
:FOR003:   3.ATOM          5.393          0.000          0.000         -5.393 partial forces
       TOTAL FORCE WITH RESPECT TO GLOBAL CARTESIAN COORDINATES:
:FCA001:   1.ATOM                         0.000          0.000          0.000 partial forces
:FCA002:   2.ATOM                         0.000          0.000          0.000 partial forces
:FCA003:   3.ATOM                         0.000          0.000         -5.393 partial forces
       TOTAL FORCE WITH RESPECT TO THE GLOBAL COORDINATE SYSTEM:
:FGL001:   1.ATOM                 0.000000000     0.000000000     0.000000000 partial forces
:FGL002:   2.ATOM                 0.000000000     0.000000000     0.000000000 partial forces
:FGL003:   3.ATOM                -5.393415523    -5.393415523    -5.393415523 partial forces
