
:LABEL1: Calculations in /home/stevezhang/work/CuMO2/convergence/CuAlO2/rkmax_7-scfk_8c/CuAlO2
:LABEL2: on MZ at Mon Jun 21 18:51:23 CST 2021
:LABEL3: using WIEN2k_14.2 (Release 15/10/2014) in /home/stevezhang/wien2k/v14.2
:LABEL4: using the command: run_lapw -ec 0.000000001


            ---------
:ITE001:  1. ITERATION
            ---------

:NATO :    3 INDEPENDENT AND    4 TOTAL ATOMS IN UNITCELL
       SUBSTANCE: CuAlO2 BenkoF84                                             

       LATTICE                      = R   
:POT  : POTENTIAL OPTION EX_PBE EC_PBE VX_PBE VC_PBE
:LAT  : LATTICE CONSTANTS=  5.40508  5.40508 32.03482
:VOL  : UNIT CELL VOLUME =     270.16967
       MODE OF CALCULATION IS       = RELA
       NON-SPINPOLARIZED CALCULATION
:IFFT  : FFT-parameters:   90   90   90 Factor: 2.00
       ATOMNUMBER=  1 Cu1        VCOUL-ZERO =  0.40717E+00
:EFG001:                        EFG         =     0.13808   *10**21  V / m**2
                               V20  TOT/SRF=     0.11958     0.33259
                               V22  TOT/SRF=     0.00000     0.00000
                               V22M TOT/SRF=     0.00000     0.00000
                               V21  TOT/SRF=     0.00000     0.00000
                               V21M TOT/SRF=     0.00000     0.00000

             -0.06904    0.00000    0.00000       -0.06904    0.00000    0.00000
              0.00000   -0.06904    0.00000        0.00000   -0.06904    0.00000
              0.00000    0.00000    0.13808        0.00000    0.00000    0.13808

         MAIN DIRECTIONS OF THE EFG   1.0000  0.0000  0.0000
                                      0.0000  1.0000  0.0000
                                      0.0000  0.0000  1.0000
:ANG001:  ANGLE WITH OLD X-AXIS =         0.0

:ETA001:                         ASYMM. ETA =     0.00000


       ATOMNUMBER=  2 Al1        VCOUL-ZERO = -0.82618E-01
:EFG002:                        EFG         =    -0.14362   *10**21  V / m**2
                               V20  TOT/SRF=    -0.12438    -0.19646
                               V22  TOT/SRF=     0.00000     0.00000
                               V22M TOT/SRF=     0.00000     0.00000
                               V21  TOT/SRF=     0.00000     0.00000
                               V21M TOT/SRF=     0.00000     0.00000

              0.07181    0.00000    0.00000        0.07181    0.00000    0.00000
              0.00000    0.07181    0.00000        0.00000    0.07181    0.00000
              0.00000    0.00000   -0.14362        0.00000    0.00000   -0.14362

         MAIN DIRECTIONS OF THE EFG   1.0000  0.0000  0.0000
                                      0.0000  1.0000  0.0000
                                      0.0000  0.0000  1.0000
:ANG002:  ANGLE WITH OLD X-AXIS =         0.0

:ETA002:                         ASYMM. ETA =     0.00000


       ATOMNUMBER=  3 O 1        VCOUL-ZERO =  0.17148E-01
:EFG003:                        EFG         =     0.24211   *10**21  V / m**2
                               V20  TOT/SRF=     0.20967     0.27373
                               V22  TOT/SRF=     0.00000     0.00000
                               V22M TOT/SRF=     0.00000     0.00000
                               V21  TOT/SRF=     0.00000     0.00000
                               V21M TOT/SRF=     0.00000     0.00000

             -0.12105    0.00000    0.00000       -0.12105    0.00000    0.00000
              0.00000   -0.12105    0.00000        0.00000   -0.12105    0.00000
              0.00000    0.00000    0.24211        0.00000    0.00000    0.24211

         MAIN DIRECTIONS OF THE EFG   1.0000  0.0000  0.0000
                                      0.0000  1.0000  0.0000
                                      0.0000  0.0000  1.0000
:ANG003:  ANGLE WITH OLD X-AXIS =         0.0

:ETA003:                         ASYMM. ETA =     0.00000


     HELLMANN-FEYNMAN-FORCE IN mRy/a.u. = |F|  Fx       Fy             Fz
:FHF001:   1.ATOM      0.000000000      0.000000000      0.000000000      0.000000000

     HELLMANN-FEYNMAN-FORCE IN mRy/a.u. = |F|  Fx       Fy             Fz
:FHF002:   2.ATOM      0.000000000      0.000000000      0.000000000      0.000000000

     HELLMANN-FEYNMAN-FORCE IN mRy/a.u. = |F|  Fx       Fy             Fz
:FHF003:   3.ATOM    633.342468613      0.000000000      0.000000000   -633.342468613

:FIT001: LUSE= 13 SIGMA OF V-XC FIT FOR ATOM  1  0.7569698E-02
:FIT001: LUSE= 13 SIGMA OF V-XC FIT FOR ATOM  1  0.7569698E-02
:FIT002: LUSE= 13 SIGMA OF V-XC FIT FOR ATOM  2  0.4811514E-02
:FIT002: LUSE= 13 SIGMA OF V-XC FIT FOR ATOM  2  0.4811514E-02
:FIT003: LUSE= 13 SIGMA OF V-XC FIT FOR ATOM  3  0.4855342E-04
:FIT003: LUSE= 13 SIGMA OF V-XC FIT FOR ATOM  3  0.4855342E-04
:DEN  : DENSITY INTEGRAL  =         -1791.58510637   (Ry)
       ELS_POTENTIAL_AT Z=0 and Z=0.5:   0.00000   0.00000
       ELS_POTENTIAL_AT Y=0 and Y=0.5:   0.00000   0.00000
:VZERO:v0,v0c,v0x  -0.83019   0.00000  -0.83019 v5,v5c,v5x  -0.83019   0.00000  -0.83019
:VZERY:v0,v0c,v0x  -0.83019   0.00000  -0.83019 v5,v5c,v5x  -0.83019   0.00000  -0.83019
:VZERX:v0,v0c,v0x  -2.47368  -1.25394  -1.21974 v5,v5c,v5x  -0.01023   0.44426  -0.45449

          ATOMIC SPHERE DEPENDENT PARAMETERS FOR ATOM  Cu1       
:e__0001: OVERALL ENERGY PARAMETER IS    0.3000
          OVERALL BASIS SET ON ATOM IS LAPW
:E1_0001: E( 1)=    0.3000
             APW+lo
:E1_0001: E( 1)=   -4.6485   E(BOTTOM)=   -4.714   E(TOP)=   -4.583  1  2   173
             LOCAL ORBITAL
:E2_0001: E( 2)=    0.2880   E(BOTTOM)=   -0.031   E(TOP)=    0.607  0  1   136
             APW+lo
:E0_0001: E( 0)=    0.3000
             APW+lo

          ATOMIC SPHERE DEPENDENT PARAMETERS FOR ATOM  Al1       
:e__0002: OVERALL ENERGY PARAMETER IS    0.3000
          OVERALL BASIS SET ON ATOM IS LAPW
:E1_0002: E( 1)=    0.3000
             APW+lo
:E1_0002: E( 1)=   -4.1255   E(BOTTOM)=   -4.231   E(TOP)=   -4.020  0  1   164
             LOCAL ORBITAL
:E0_0002: E( 0)=    0.3000
             APW+lo

          ATOMIC SPHERE DEPENDENT PARAMETERS FOR ATOM  O 1       
:e__0003: OVERALL ENERGY PARAMETER IS    0.3000
          OVERALL BASIS SET ON ATOM IS LAPW
:E0_0003: E( 0)=   -1.5500   E(BOTTOM)=   -2.792   E(TOP)= -200.000  1 -1   241
             APW+lo
:E0_0003: E( 0)=    0.7000
             LOCAL ORBITAL
:E1_0003: E( 1)=    0.3000
             APW+lo

       K=   0.00000   0.00000   0.00000            1
:RKM  : MATRIX SIZE   616LOs:  29  RKM= 6.98  WEIGHT= 1.00  PGR:    
       EIGENVALUES ARE:
:EIG00001:      -4.6407281   -4.6308488   -4.6308488   -4.1004685   -4.1004685
:EIG00006:      -4.0959343   -1.1956435   -1.0573884   -0.2098135    0.0635482
:EIG00011:       0.0635482    0.0676218    0.1312135    0.1312135    0.2219215
:EIG00016:       0.3272277    0.3272277    0.3616737    0.3616737    0.5748387
:EIG00021:       0.9045545    0.9512160    1.3464051    1.4893936    1.4893936
:EIG00026:       1.5575699    1.5866218    1.5866218    1.9074567    1.9668066
:EIG00031:       1.9668066
       ********************************************************

:KPT   :      NUMBER OF K-POINTS:    65
       Insulator, EF-inconsistency corrected
:GAP  :    0.1403 Ry =     1.908 eV   (provided you have a proper k-mesh)
         Bandranges (emin - emax) and occupancy:
:BAN00009:   9   -0.209813   -0.122705  2.00000000
:BAN00010:  10   -0.169938    0.063548  2.00000000
:BAN00011:  11   -0.107419    0.074605  2.00000000
:BAN00012:  12   -0.011800    0.083192  2.00000000
:BAN00013:  13    0.020333    0.131213  2.00000000
:BAN00014:  14    0.048657    0.131213  2.00000000
:BAN00015:  15    0.221921    0.315350  2.00000000
:BAN00016:  16    0.317757    0.338400  2.00000000
:BAN00017:  17    0.327228    0.362742  2.00000000
:BAN00018:  18    0.344104    0.376278  2.00000000
:BAN00019:  19    0.357045    0.434515  2.00000000
:BAN00020:  20    0.574839    0.845571  0.00000000
:BAN00021:  21    0.769084    1.093662  0.00000000
:BAN00022:  22    0.951216    1.165061  0.00000000
:BAN00023:  23    1.109878    1.346405  0.00000000
:BAN00024:  24    1.197801    1.491844  0.00000000
        Energy to separate low and high energystates:   -0.25981


:NOE  : NUMBER OF ELECTRONS          =  38.000

:FER  : F E R M I - ENERGY(TETRAH.M.)=   0.4345150943
:GMA  : POTENTIAL AND CHARGE CUT-OFF  12.00 Ry**.5




:POS001: ATOM   -1 X,Y,Z = 0.00000 0.00000 0.00000  MULT= 1  ZZ= 29.000  Cu1       

       LMMAX  7
       LM=   0 0  2 0  4 0  4 3  6 0  6 3  6 6

:CHA001: TOTAL VALENCE CHARGE INSIDE SPHERE   1 =  15.4431    (RMT=  2.0000 )
:PCS001: PARTIAL CHARGES SPHERE =  1 S,P,D,F,PZ,PXY, D-Z2,D-XY,X2Y2,D-XZ,YZ 
:QTL001: 0.2107 6.1196 9.0894 0.0173 2.0923 4.0272 0.0000 1.6625 3.6779 3.7491 0.0000 0.0000
        Q-s-low E-s-low   Q-p-low E-p-low   Q-d-low E-d-low   Q-f-low E-f-low
:EPL001:  0.0133 -1.0834    5.9995 -4.6253    0.0169 -1.0818    0.0027 -1.0845
        Q-s-hi  E-s-hi    Q-p-hi  E-p-hi    Q-d-hi  E-d-hi    Q-f-hi  E-f-hi 
:EPH001:  0.1974  0.1303    0.1201  0.0535    9.0726  0.3276    0.0146  0.0229
:VZZ001: EFG INSIDE SPHERE   1 =    -4.643256      UP TO R =   2.00000




:POS002: ATOM   -2 X,Y,Z = 0.50000 0.50000 0.50000  MULT= 1  ZZ= 13.000  Al1       

       LMMAX  7
       LM=   0 0  2 0  4 0  4 3  6 0  6 3  6 6

:CHA002: TOTAL VALENCE CHARGE INSIDE SPHERE   2 =   6.5281    (RMT=  1.8000 )
:PCS002: PARTIAL CHARGES SPHERE =  2 S,P,D,F,PZ,PXY, D-Z2,D-XY,X2Y2,D-XZ,YZ 
:QTL002: 0.1871 6.2052 0.1119 0.0194 2.0585 4.1467 0.0000 0.0082 0.0480 0.0557 0.0000 0.0000
        Q-s-low E-s-low   Q-p-low E-p-low   Q-d-low E-d-low   Q-f-low E-f-low
:EPL002:  0.0301 -1.1405    6.0062 -4.0809    0.0154 -1.0580    0.0030 -1.0781
        Q-s-hi  E-s-hi    Q-p-hi  E-p-hi    Q-d-hi  E-d-hi    Q-f-hi  E-f-hi 
:EPH002:  0.1570 -0.1200    0.1989 -0.0227    0.0965  0.0273    0.0164  0.0443
:VZZ002: EFG INSIDE SPHERE   2 =     0.950427      UP TO R =   1.80000




:POS003: ATOM   -3 X,Y,Z = 0.10979 0.10979 0.10979  MULT= 2  ZZ=  8.000  O 1       

       LMMAX 12
       LM=   0 0  1 0  2 0  3 0  3 3  4 0  4 3  5 0  5 3  6 0  6 3  6 6

:CHA003: TOTAL VALENCE CHARGE INSIDE SPHERE   3 =   4.9659    (RMT=  1.4000 )
:PCS003: PARTIAL CHARGES SPHERE =  3 S,P,D,F,PZ,PXY, D-Z2,D-XY,X2Y2,D-XZ,YZ 
:QTL003: 1.4249 3.5336 0.0065 0.0007 1.1527 2.3809 0.0000 0.0015 0.0009 0.0041 0.0000 0.0000
        Q-s-low E-s-low   Q-p-low E-p-low   Q-d-low E-d-low   Q-f-low E-f-low
:EPL003:  1.3831 -1.0828    0.0064 -1.2766    0.0002 -2.6622    0.0001 -2.4747
        Q-s-hi  E-s-hi    Q-p-hi  E-p-hi    Q-d-hi  E-d-hi    Q-f-hi  E-f-hi 
:EPH003:  0.0418 -0.0610    3.5272  0.0053    0.0063  0.1866    0.0006  0.2359
:VZZ003: EFG INSIDE SPHERE   3 =     2.631595      UP TO R =   1.40000

:CHA  : TOTAL VALENCE CHARGE INSIDE UNIT CELL =      38.000000

:SUM  : SUM OF EIGENVALUES =         -53.564791342


        1.ATOM      Cu1                   5 CORE STATES
:1S 001: 1S                -649.705732691 Ry
:2S 001: 2S                 -77.430237248 Ry
:2PP001: 2P*                -67.744370335 Ry
:2P 001: 2P                 -66.238448812 Ry
:3S 001: 3S                  -7.770292626 Ry

        2.ATOM      Al1                   2 CORE STATES
:1S 002: 1S                -110.024920271 Ry
:2S 002: 2S                  -6.930087119 Ry

        3.ATOM      O 1                   1 CORE STATES
       CORE-FORCE in mRy/a.u. = |F|      Fx             Fy             Fz
:FCO003:   3.ATOM    160.288446928      0.000000000      0.000000000    160.288446928

:1S 003: 1S                 -36.977013179 Ry
:CINT001 Core Integral Atom   1   11.998557
:CINT002 Core Integral Atom   2    3.995890
:CINT003 Core Integral Atom   3    1.999999

       DENSITY AT NUCLEUS
        JATOM        VALENCE       SEMI-CORE          CORE           TOTAL
:RTO001:   1        5.904500        0.000000    22630.787820    22636.692320
:RTO002:   2        2.341478        0.000000     1486.726621     1489.068098
:RTO003:   3       15.607698        0.000000      303.968862      319.576560
     
       CHARGES OF NEW CHARGE DENSITY
:NTO   : INTERSTITIAL CHARGE =     6.096836
:NTO001: CHARGE SPHERE  1    =    27.441696
:NTO002: CHARGE SPHERE  2    =    10.524025
:NTO003: CHARGE SPHERE  3    =     6.965932

:NEC01: NUCLEAR AND ELECTRONIC CHARGE     58.00000    57.99442
     
       CHARGES OF OLD CHARGE DENSITY
:OTO   : INTERSTITIAL CHARGE =     7.173275
:OTO001: CHARGE SPHERE  1    =    27.282985
:OTO002: CHARGE SPHERE  2    =    10.843492
:OTO003: CHARGE SPHERE  3    =     6.350577

:NEC02: NUCLEAR AND ELECTRONIC CHARGE     58.00000    58.00091
     
       CONVERGENCE TEST
:DTO001: DIFFERENCE IN SPHERE  1 =  0.5828541
:DTO002: DIFFERENCE IN SPHERE  2 =  0.2959063
:DTO003: DIFFERENCE IN SPHERE  3 =  0.7849156

:DIS  :  CHARGE DISTANCE       ( 0.7849156 for atom    3 spin 1)      0.6121479
:BIG check (qbig,qrms,qtot)    0.262D+00   0.455D+00   0.612D+00
 
******************************************************
* MULTISECANT MIXING VER6 RELEASE 6.0 OPTIONS        *
* Standard Mode with controls                        *
* Regularization       1.000E-06                     *
* Trust Region Control Active                        *
* Max Number of Memory Steps    8                    *
******************************************************
 
:PLANE:  INTERSTITIAL TOTAL      1.68238 DISTAN  2.190E+01 % 
:CHARG:  CLM CHARGE   /ATOM     54.20733 DISTAN  1.737E+00 % 
:REDuction and DMIX in Broyd:    0.7922    0.1584
:DIRM :  MEMORY  0/ 8 RESCALES   1.00
:MIX  :   PRATT  REGULARIZATION: 1.00E-06  GREED: 0.035
     
       CHARGES OF MIXED CHARGE DENSITY
:CTO   : INTERSTITIAL CHARGE =     7.134920
:CTO001: CHARGE SPHERE  1    =    27.288540
:CTO002: CHARGE SPHERE  2    =    10.832310
:CTO003: CHARGE SPHERE  3    =     6.372115

:NEC03: NUCLEAR AND ELECTRONIC CHARGE     58.00000    58.00000

PW CHANGE     H    K    L       Current     Change     Residue
:PTO001:      0    0    0  6.77321674E-02 -1.658E-04 -4.737E-03
:PTO002:     -1   -1   -1 -1.79841378E-02 -2.364E-04 -6.753E-03
:PTO003:     -2   -2   -2 -2.34953098E-03 -2.873E-04 -8.209E-03
:PTO004:     -1    0    0  1.09738999E-01  4.418E-04  1.262E-02
:PTO005:     -1   -1    0  6.53531247E-02 -3.127E-04 -8.933E-03
:PTO006:     -2   -1   -1 -5.23370715E-02 -1.069E-03 -3.055E-02
:PTO007:     -2   -2   -1 -6.42980876E-02 -7.968E-04 -2.277E-02
:PTO008:     -3   -3   -3  2.96208213E-02  1.461E-04  4.174E-03
:PTO009:     -3   -2   -2  1.80118930E-02 -2.026E-05 -5.790E-04
:PTO010:     -3   -3   -2  5.25696335E-02  1.055E-04  3.014E-03
:PTO011:     -1    0    1  4.60659521E-02 -4.188E-05 -1.197E-03
:PTO012:     -4   -4   -4 -2.27774782E-03 -1.263E-04 -3.609E-03

:ENE  : ********** TOTAL ENERGY IN Ry =        -4097.22302626

       TOTAL FORCE IN mRy/a.u. = |F|     Fx             Fy             Fz     with/without FOR in case.in2
:FOR001:   1.ATOM          0.000          0.000          0.000          0.000 partial forces
:FOR002:   2.ATOM          0.000          0.000          0.000          0.000 partial forces
:FOR003:   3.ATOM        473.054          0.000          0.000       -473.054 partial forces
       TOTAL FORCE WITH RESPECT TO GLOBAL CARTESIAN COORDINATES:
:FCA001:   1.ATOM                         0.000          0.000          0.000 partial forces
:FCA002:   2.ATOM                         0.000          0.000          0.000 partial forces
:FCA003:   3.ATOM                         0.000          0.000       -473.054 partial forces
       TOTAL FORCE WITH RESPECT TO THE GLOBAL COORDINATE SYSTEM:
:FGL001:   1.ATOM                 0.000000000     0.000000000     0.000000000 partial forces
:FGL002:   2.ATOM                 0.000000000     0.000000000     0.000000000 partial forces
:FGL003:   3.ATOM              -473.054021685  -473.054021685  -473.054021685 partial forces


            ---------
:ITE002:  2. ITERATION
            ---------

:NATO :    3 INDEPENDENT AND    4 TOTAL ATOMS IN UNITCELL
       SUBSTANCE: CuAlO2 BenkoF84                                             

       LATTICE                      = R   
:POT  : POTENTIAL OPTION EX_PBE EC_PBE VX_PBE VC_PBE
:LAT  : LATTICE CONSTANTS=  5.40508  5.40508 32.03482
:VOL  : UNIT CELL VOLUME =     270.16967
       MODE OF CALCULATION IS       = RELA
       NON-SPINPOLARIZED CALCULATION
:IFFT  : FFT-parameters:   90   90   90 Factor: 2.00
       ATOMNUMBER=  1 Cu1        VCOUL-ZERO =  0.40248E+00
:EFG001:                        EFG         =    -0.03286   *10**21  V / m**2
                               V20  TOT/SRF=    -0.02845     0.31504
                               V22  TOT/SRF=     0.00000     0.00000
                               V22M TOT/SRF=     0.00000     0.00000
                               V21  TOT/SRF=     0.00000     0.00000
                               V21M TOT/SRF=     0.00000     0.00000

              0.01643    0.00000    0.00000        0.01643    0.00000    0.00000
              0.00000    0.01643    0.00000        0.00000    0.01643    0.00000
              0.00000    0.00000   -0.03286        0.00000    0.00000   -0.03286

         MAIN DIRECTIONS OF THE EFG   1.0000  0.0000  0.0000
                                      0.0000  1.0000  0.0000
                                      0.0000  0.0000  1.0000
:ANG001:  ANGLE WITH OLD X-AXIS =         0.0

:ETA001:                         ASYMM. ETA =     0.00000


       ATOMNUMBER=  2 Al1        VCOUL-ZERO = -0.82902E-01
:EFG002:                        EFG         =    -0.10306   *10**21  V / m**2
                               V20  TOT/SRF=    -0.08925    -0.18549
                               V22  TOT/SRF=     0.00000     0.00000
                               V22M TOT/SRF=     0.00000     0.00000
                               V21  TOT/SRF=     0.00000     0.00000
                               V21M TOT/SRF=     0.00000     0.00000

              0.05153    0.00000    0.00000        0.05153    0.00000    0.00000
              0.00000    0.05153    0.00000        0.00000    0.05153    0.00000
              0.00000    0.00000   -0.10306        0.00000    0.00000   -0.10306

         MAIN DIRECTIONS OF THE EFG   1.0000  0.0000  0.0000
                                      0.0000  1.0000  0.0000
                                      0.0000  0.0000  1.0000
:ANG002:  ANGLE WITH OLD X-AXIS =         0.0

:ETA002:                         ASYMM. ETA =     0.00000


       ATOMNUMBER=  3 O 1        VCOUL-ZERO =  0.29358E-01
:EFG003:                        EFG         =     0.33535   *10**21  V / m**2
                               V20  TOT/SRF=     0.29042     0.27226
                               V22  TOT/SRF=     0.00000     0.00000
                               V22M TOT/SRF=     0.00000     0.00000
                               V21  TOT/SRF=     0.00000     0.00000
                               V21M TOT/SRF=     0.00000     0.00000

             -0.16767    0.00000    0.00000       -0.16767    0.00000    0.00000
              0.00000   -0.16767    0.00000        0.00000   -0.16767    0.00000
              0.00000    0.00000    0.33535        0.00000    0.00000    0.33535

         MAIN DIRECTIONS OF THE EFG   1.0000  0.0000  0.0000
                                      0.0000  1.0000  0.0000
                                      0.0000  0.0000  1.0000
:ANG003:  ANGLE WITH OLD X-AXIS =         0.0

:ETA003:                         ASYMM. ETA =     0.00000


     HELLMANN-FEYNMAN-FORCE IN mRy/a.u. = |F|  Fx       Fy             Fz
:FHF001:   1.ATOM      0.000000000      0.000000000      0.000000000      0.000000000

     HELLMANN-FEYNMAN-FORCE IN mRy/a.u. = |F|  Fx       Fy             Fz
:FHF002:   2.ATOM      0.000000000      0.000000000      0.000000000      0.000000000

     HELLMANN-FEYNMAN-FORCE IN mRy/a.u. = |F|  Fx       Fy             Fz
:FHF003:   3.ATOM    598.278470601      0.000000000      0.000000000   -598.278470601

:FIT001: LUSE= 13 SIGMA OF V-XC FIT FOR ATOM  1  0.7537147E-02
:FIT001: LUSE= 13 SIGMA OF V-XC FIT FOR ATOM  1  0.7537147E-02
:FIT002: LUSE= 13 SIGMA OF V-XC FIT FOR ATOM  2  0.4803853E-02
:FIT002: LUSE= 13 SIGMA OF V-XC FIT FOR ATOM  2  0.4803853E-02
:FIT003: LUSE= 13 SIGMA OF V-XC FIT FOR ATOM  3  0.5227552E-04
:FIT003: LUSE= 13 SIGMA OF V-XC FIT FOR ATOM  3  0.5227552E-04
:DEN  : DENSITY INTEGRAL  =         -1792.22679281   (Ry)
       ELS_POTENTIAL_AT Z=0 and Z=0.5:   0.00000   0.00000
       ELS_POTENTIAL_AT Y=0 and Y=0.5:   0.00000   0.00000
:VZERO:v0,v0c,v0x  -0.82830   0.00000  -0.82830 v5,v5c,v5x  -0.82830   0.00000  -0.82830
:VZERY:v0,v0c,v0x  -0.82830   0.00000  -0.82830 v5,v5c,v5x  -0.82830   0.00000  -0.82830
:VZERX:v0,v0c,v0x  -2.45819  -1.23857  -1.21961 v5,v5c,v5x  -0.01881   0.43020  -0.44901

          ATOMIC SPHERE DEPENDENT PARAMETERS FOR ATOM  Cu1       
:e__0001: OVERALL ENERGY PARAMETER IS    0.2509
          OVERALL BASIS SET ON ATOM IS LAPW
:E1_0001: E( 1)=    0.2509
             APW+lo
:E1_0001: E( 1)=   -4.6385   E(BOTTOM)=   -4.704   E(TOP)=   -4.573  1  2   170
             LOCAL ORBITAL
:E2_0001: E( 2)=    0.2959   E(BOTTOM)=   -0.025   E(TOP)=    0.617  0  1   130
             APW+lo
:E0_0001: E( 0)=    0.2509
             APW+lo

          ATOMIC SPHERE DEPENDENT PARAMETERS FOR ATOM  Al1       
:e__0002: OVERALL ENERGY PARAMETER IS    0.2509
          OVERALL BASIS SET ON ATOM IS LAPW
:E1_0002: E( 1)=    0.2509
             APW+lo
:E1_0002: E( 1)=   -4.1315   E(BOTTOM)=   -4.237   E(TOP)=   -4.026  0  1   166
             LOCAL ORBITAL
:E0_0002: E( 0)=    0.2509
             APW+lo

          ATOMIC SPHERE DEPENDENT PARAMETERS FOR ATOM  O 1       
:e__0003: OVERALL ENERGY PARAMETER IS    0.2509
          OVERALL BASIS SET ON ATOM IS LAPW
:E0_0003: E( 0)=   -1.5500   E(BOTTOM)=   -2.773   E(TOP)= -200.000  1 -1   243
             APW+lo
:E0_0003: E( 0)=    0.6509
             LOCAL ORBITAL
:E1_0003: E( 1)=    0.2509
             APW+lo

       K=   0.00000   0.00000   0.00000            1
:RKM  : MATRIX SIZE   616LOs:  29  RKM= 6.98  WEIGHT= 1.00  PGR:    
       EIGENVALUES ARE:
:EIG00001:      -4.6302955   -4.6209364   -4.6209364   -4.1064557   -4.1064557
:EIG00006:      -4.1023039   -1.1803710   -1.0404465   -0.1979885    0.0801802
:EIG00011:       0.0801802    0.0842272    0.1491446    0.1491446    0.2236699
:EIG00016:       0.3342020    0.3342020    0.3706116    0.3706116    0.5826190
:EIG00021:       0.9087044    0.9592823    1.3480691    1.4922584    1.4922584
:EIG00026:       1.5634355    1.5903611    1.5903611    1.9052941
       ********************************************************

:KPT   :      NUMBER OF K-POINTS:    65
       Insulator, EF-inconsistency corrected
:GAP  :    0.1385 Ry =     1.884 eV   (provided you have a proper k-mesh)
         Bandranges (emin - emax) and occupancy:
:BAN00009:   9   -0.197989   -0.108807  2.00000000
:BAN00010:  10   -0.157277    0.080180  2.00000000
:BAN00011:  11   -0.094159    0.091845  2.00000000
:BAN00012:  12    0.002556    0.098950  2.00000000
:BAN00013:  13    0.036207    0.149145  2.00000000
:BAN00014:  14    0.064466    0.149145  2.00000000
:BAN00015:  15    0.223670    0.321771  2.00000000
:BAN00016:  16    0.324459    0.346962  2.00000000
:BAN00017:  17    0.334202    0.372070  2.00000000
:BAN00018:  18    0.351513    0.384105  2.00000000
:BAN00019:  19    0.365817    0.444084  2.00000000
:BAN00020:  20    0.582619    0.844578  0.00000000
:BAN00021:  21    0.775072    1.093976  0.00000000
:BAN00022:  22    0.959282    1.168093  0.00000000
:BAN00023:  23    1.111879    1.348069  0.00000000
:BAN00024:  24    1.206340    1.494825  0.00000000
        Energy to separate low and high energystates:   -0.24799


:NOE  : NUMBER OF ELECTRONS          =  38.000

:FER  : F E R M I - ENERGY(TETRAH.M.)=   0.4440835133
:GMA  : POTENTIAL AND CHARGE CUT-OFF  12.00 Ry**.5




:POS001: ATOM   -1 X,Y,Z = 0.00000 0.00000 0.00000  MULT= 1  ZZ= 29.000  Cu1       

       LMMAX  7
       LM=   0 0  2 0  4 0  4 3  6 0  6 3  6 6

:CHA001: TOTAL VALENCE CHARGE INSIDE SPHERE   1 =  15.4289    (RMT=  2.0000 )
:PCS001: PARTIAL CHARGES SPHERE =  1 S,P,D,F,PZ,PXY, D-Z2,D-XY,X2Y2,D-XZ,YZ 
:QTL001: 0.2178 6.1231 9.0645 0.0174 2.0939 4.0292 0.0000 1.6482 3.6709 3.7454 0.0000 0.0000
        Q-s-low E-s-low   Q-p-low E-p-low   Q-d-low E-d-low   Q-f-low E-f-low
:EPL001:  0.0136 -1.0664    5.9996 -4.6151    0.0171 -1.0647    0.0027 -1.0667
        Q-s-hi  E-s-hi    Q-p-hi  E-p-hi    Q-d-hi  E-d-hi    Q-f-hi  E-f-hi 
:EPH001:  0.2042  0.1411    0.1235  0.0691    9.0474  0.3349    0.0147  0.0392
:VZZ001: EFG INSIDE SPHERE   1 =    -4.475176      UP TO R =   2.00000




:POS002: ATOM   -2 X,Y,Z = 0.50000 0.50000 0.50000  MULT= 1  ZZ= 13.000  Al1       

       LMMAX  7
       LM=   0 0  2 0  4 0  4 3  6 0  6 3  6 6

:CHA002: TOTAL VALENCE CHARGE INSIDE SPHERE   2 =   6.5389    (RMT=  1.8000 )
:PCS002: PARTIAL CHARGES SPHERE =  2 S,P,D,F,PZ,PXY, D-Z2,D-XY,X2Y2,D-XZ,YZ 
:QTL002: 0.1910 6.2101 0.1137 0.0195 2.0602 4.1499 0.0000 0.0083 0.0487 0.0567 0.0000 0.0000
        Q-s-low E-s-low   Q-p-low E-p-low   Q-d-low E-d-low   Q-f-low E-f-low
:EPL002:  0.0308 -1.1243    6.0070 -4.0866    0.0155 -1.0407    0.0030 -1.0609
        Q-s-hi  E-s-hi    Q-p-hi  E-p-hi    Q-d-hi  E-d-hi    Q-f-hi  E-f-hi 
:EPH002:  0.1602 -0.1065    0.2031 -0.0076    0.0982  0.0431    0.0165  0.0602
:VZZ002: EFG INSIDE SPHERE   2 =     0.974274      UP TO R =   1.80000




:POS003: ATOM   -3 X,Y,Z = 0.10979 0.10979 0.10979  MULT= 2  ZZ=  8.000  O 1       

       LMMAX 12
       LM=   0 0  1 0  2 0  3 0  3 3  4 0  4 3  5 0  5 3  6 0  6 3  6 6

:CHA003: TOTAL VALENCE CHARGE INSIDE SPHERE   3 =   4.9306    (RMT=  1.4000 )
:PCS003: PARTIAL CHARGES SPHERE =  3 S,P,D,F,PZ,PXY, D-Z2,D-XY,X2Y2,D-XZ,YZ 
:QTL003: 1.4206 3.5025 0.0066 0.0007 1.1414 2.3611 0.0000 0.0015 0.0010 0.0041 0.0000 0.0000
        Q-s-low E-s-low   Q-p-low E-p-low   Q-d-low E-d-low   Q-f-low E-f-low
:EPL003:  1.3778 -1.0658    0.0063 -1.2624    0.0002 -2.6379    0.0001 -2.4533
        Q-s-hi  E-s-hi    Q-p-hi  E-p-hi    Q-d-hi  E-d-hi    Q-f-hi  E-f-hi 
:EPH003:  0.0428 -0.0482    3.4962  0.0209    0.0063  0.1966    0.0006  0.2447
:VZZ003: EFG INSIDE SPHERE   3 =     2.697156      UP TO R =   1.40000

:CHA  : TOTAL VALENCE CHARGE INSIDE UNIT CELL =      38.000000

:SUM  : SUM OF EIGENVALUES =         -53.220960730


        1.ATOM      Cu1                   5 CORE STATES
:1S 001: 1S                -649.687258450 Ry
:2S 001: 2S                 -77.411583721 Ry
:2PP001: 2P*                -67.725561528 Ry
:2P 001: 2P                 -66.219656832 Ry
:3S 001: 3S                  -7.759609729 Ry

        2.ATOM      Al1                   2 CORE STATES
:1S 002: 1S                -110.034138371 Ry
:2S 002: 2S                  -6.936105668 Ry

        3.ATOM      O 1                   1 CORE STATES
       CORE-FORCE in mRy/a.u. = |F|      Fx             Fy             Fz
:FCO003:   3.ATOM    152.685334336      0.000000000      0.000000000    152.685334336

:1S 003: 1S                 -36.938566426 Ry
:CINT001 Core Integral Atom   1   11.998548
:CINT002 Core Integral Atom   2    3.995903
:CINT003 Core Integral Atom   3    1.999999

       DENSITY AT NUCLEUS
        JATOM        VALENCE       SEMI-CORE          CORE           TOTAL
:RTO001:   1        6.122167        0.000000    22630.582439    22636.704606
:RTO002:   2        2.395836        0.000000     1486.759688     1489.155525
:RTO003:   3       15.518982        0.000000      303.954083      319.473064
     
       CHARGES OF NEW CHARGE DENSITY
:NTO   : INTERSTITIAL CHARGE =     6.171057
:NTO001: CHARGE SPHERE  1    =    27.427415
:NTO002: CHARGE SPHERE  2    =    10.534809
:NTO003: CHARGE SPHERE  3    =     6.930572

:NEC01: NUCLEAR AND ELECTRONIC CHARGE     58.00000    57.99443
     
       CHARGES OF OLD CHARGE DENSITY
:OTO   : INTERSTITIAL CHARGE =     7.134920
:OTO001: CHARGE SPHERE  1    =    27.288540
:OTO002: CHARGE SPHERE  2    =    10.832310
:OTO003: CHARGE SPHERE  3    =     6.372115

:NEC02: NUCLEAR AND ELECTRONIC CHARGE     58.00000    58.00000
     
       CONVERGENCE TEST
:DTO001: DIFFERENCE IN SPHERE  1 =  0.4937185
:DTO002: DIFFERENCE IN SPHERE  2 =  0.2749906
:DTO003: DIFFERENCE IN SPHERE  3 =  0.7046481

:DIS  :  CHARGE DISTANCE       ( 0.7046481 for atom    3 spin 1)      0.5445014
:BIG check (qbig,qrms,qtot)    0.235D+00   0.405D+00   0.545D+00
 
******************************************************
* MULTISECANT MIXING VER6 RELEASE 6.0 OPTIONS        *
* Standard Mode with controls                        *
* Regularization       1.000E-06                     *
* Trust Region Control Active                        *
* Max Number of Memory Steps    8                    *
******************************************************
 
:PLANE:  INTERSTITIAL TOTAL      1.68539 DISTAN  2.067E+01 % 
:CHARG:  CLM CHARGE   /ATOM     54.21349 DISTAN  1.575E+00 % 
:REDuction and DMIX in Broyd:    0.8301    0.1660
 
 Step History DMIX, Red, Pred, Trust, FRMS, FABS
  2  3.5000E-02  1.0000E+00  1.0000E+00  1.0000E+00
  
:DIRM :  MEMORY  1/ 8 RESCALES   7.51
:MIX  :   PRATT  REGULARIZATION: 1.00E-06  GREED: 0.088  Expand 2.50  0.09                
     
       CHARGES OF MIXED CHARGE DENSITY
:CTO   : INTERSTITIAL CHARGE =     7.041299
:CTO001: CHARGE SPHERE  1    =    27.302427
:CTO002: CHARGE SPHERE  2    =    10.804357
:CTO003: CHARGE SPHERE  3    =     6.425958

:NEC03: NUCLEAR AND ELECTRONIC CHARGE     58.00000    58.00000

PW CHANGE     H    K    L       Current     Change     Residue
:PTO001:      0    0    0  6.73176646E-02 -4.145E-04 -4.307E-03
:PTO002:     -1   -1   -1 -1.85750489E-02 -5.909E-04 -6.285E-03
:PTO003:     -2   -2   -2 -3.06778291E-03 -7.183E-04 -7.704E-03
:PTO004:     -1    0    0  1.10843429E-01  1.104E-03  1.165E-02
:PTO005:     -1   -1    0  6.45714500E-02 -7.817E-04 -8.678E-03
:PTO006:     -2   -1   -1 -5.50104476E-02 -2.673E-03 -2.893E-02
:PTO007:     -2   -2   -1 -6.62900296E-02 -1.992E-03 -2.141E-02
:PTO008:     -3   -3   -3  2.99860592E-02  3.652E-04  3.887E-03
:PTO009:     -3   -2   -2  1.79612331E-02 -5.066E-05 -6.257E-04
:PTO010:     -3   -3   -2  5.28333411E-02  2.637E-04  2.467E-03
:PTO011:     -1    0    1  4.59612560E-02 -1.047E-04 -1.717E-03
:PTO012:     -4   -4   -4 -2.59357578E-03 -3.158E-04 -3.457E-03

:ENE  : ********** TOTAL ENERGY IN Ry =        -4097.18916151

       TOTAL FORCE IN mRy/a.u. = |F|     Fx             Fy             Fz     with/without FOR in case.in2
:FOR001:   1.ATOM          0.000          0.000          0.000          0.000 partial forces
:FOR002:   2.ATOM          0.000          0.000          0.000          0.000 partial forces
:FOR003:   3.ATOM        445.593          0.000          0.000       -445.593 partial forces
       TOTAL FORCE WITH RESPECT TO GLOBAL CARTESIAN COORDINATES:
:FCA001:   1.ATOM                         0.000          0.000          0.000 partial forces
:FCA002:   2.ATOM                         0.000          0.000          0.000 partial forces
:FCA003:   3.ATOM                         0.000          0.000       -445.593 partial forces
       TOTAL FORCE WITH RESPECT TO THE GLOBAL COORDINATE SYSTEM:
:FGL001:   1.ATOM                 0.000000000     0.000000000     0.000000000 partial forces
:FGL002:   2.ATOM                 0.000000000     0.000000000     0.000000000 partial forces
:FGL003:   3.ATOM              -445.593136265  -445.593136265  -445.593136265 partial forces


            ---------
:ITE003:  3. ITERATION
            ---------

:NATO :    3 INDEPENDENT AND    4 TOTAL ATOMS IN UNITCELL
       SUBSTANCE: CuAlO2 BenkoF84                                             

       LATTICE                      = R   
:POT  : POTENTIAL OPTION EX_PBE EC_PBE VX_PBE VC_PBE
:LAT  : LATTICE CONSTANTS=  5.40508  5.40508 32.03482
:VOL  : UNIT CELL VOLUME =     270.16967
       MODE OF CALCULATION IS       = RELA
       NON-SPINPOLARIZED CALCULATION
:IFFT  : FFT-parameters:   90   90   90 Factor: 2.00
       ATOMNUMBER=  1 Cu1        VCOUL-ZERO =  0.39063E+00
:EFG001:                        EFG         =    -0.46051   *10**21  V / m**2
                               V20  TOT/SRF=    -0.39881     0.27088
                               V22  TOT/SRF=     0.00000     0.00000
                               V22M TOT/SRF=     0.00000     0.00000
                               V21  TOT/SRF=     0.00000     0.00000
                               V21M TOT/SRF=     0.00000     0.00000

              0.23026    0.00000    0.00000        0.23026    0.00000    0.00000
              0.00000    0.23026    0.00000        0.00000    0.23026    0.00000
              0.00000    0.00000   -0.46051        0.00000    0.00000   -0.46051

         MAIN DIRECTIONS OF THE EFG   1.0000  0.0000  0.0000
                                      0.0000  1.0000  0.0000
                                      0.0000  0.0000  1.0000
:ANG001:  ANGLE WITH OLD X-AXIS =         0.0

:ETA001:                         ASYMM. ETA =     0.00000


       ATOMNUMBER=  2 Al1        VCOUL-ZERO = -0.83407E-01
:EFG002:                        EFG         =    -0.00138   *10**21  V / m**2
                               V20  TOT/SRF=    -0.00120    -0.15785
                               V22  TOT/SRF=     0.00000     0.00000
                               V22M TOT/SRF=     0.00000     0.00000
                               V21  TOT/SRF=     0.00000     0.00000
                               V21M TOT/SRF=     0.00000     0.00000

              0.00069    0.00000    0.00000        0.00069    0.00000    0.00000
              0.00000    0.00069    0.00000        0.00000    0.00069    0.00000
              0.00000    0.00000   -0.00138        0.00000    0.00000   -0.00138

         MAIN DIRECTIONS OF THE EFG   1.0000  0.0000  0.0000
                                      0.0000  1.0000  0.0000
                                      0.0000  0.0000  1.0000
:ANG002:  ANGLE WITH OLD X-AXIS =         0.0

:ETA002:                         ASYMM. ETA =     0.00000


       ATOMNUMBER=  3 O 1        VCOUL-ZERO =  0.60083E-01
:EFG003:                        EFG         =     0.56856   *10**21  V / m**2
                               V20  TOT/SRF=     0.49239     0.26870
                               V22  TOT/SRF=     0.00000     0.00000
                               V22M TOT/SRF=     0.00000     0.00000
                               V21  TOT/SRF=     0.00000     0.00000
                               V21M TOT/SRF=     0.00000     0.00000

             -0.28428    0.00000    0.00000       -0.28428    0.00000    0.00000
              0.00000   -0.28428    0.00000        0.00000   -0.28428    0.00000
              0.00000    0.00000    0.56856        0.00000    0.00000    0.56856

         MAIN DIRECTIONS OF THE EFG   1.0000  0.0000  0.0000
                                      0.0000  1.0000  0.0000
                                      0.0000  0.0000  1.0000
:ANG003:  ANGLE WITH OLD X-AXIS =         0.0

:ETA003:                         ASYMM. ETA =     0.00000


     HELLMANN-FEYNMAN-FORCE IN mRy/a.u. = |F|  Fx       Fy             Fz
:FHF001:   1.ATOM      0.000000000      0.000000000      0.000000000      0.000000000

     HELLMANN-FEYNMAN-FORCE IN mRy/a.u. = |F|  Fx       Fy             Fz
:FHF002:   2.ATOM      0.000000000      0.000000000      0.000000000      0.000000000

     HELLMANN-FEYNMAN-FORCE IN mRy/a.u. = |F|  Fx       Fy             Fz
:FHF003:   3.ATOM    509.859184453      0.000000000      0.000000000   -509.859184453

:FIT001: LUSE= 13 SIGMA OF V-XC FIT FOR ATOM  1  0.7423379E-02
:FIT001: LUSE= 13 SIGMA OF V-XC FIT FOR ATOM  1  0.7423379E-02
:FIT002: LUSE= 13 SIGMA OF V-XC FIT FOR ATOM  2  0.4770387E-02
:FIT002: LUSE= 13 SIGMA OF V-XC FIT FOR ATOM  2  0.4770387E-02
:FIT003: LUSE= 13 SIGMA OF V-XC FIT FOR ATOM  3  0.6211712E-04
:FIT003: LUSE= 13 SIGMA OF V-XC FIT FOR ATOM  3  0.6211712E-04
:DEN  : DENSITY INTEGRAL  =         -1793.83990952   (Ry)
       ELS_POTENTIAL_AT Z=0 and Z=0.5:   0.00000   0.00000
       ELS_POTENTIAL_AT Y=0 and Y=0.5:   0.00000   0.00000
:VZERO:v0,v0c,v0x  -0.82355   0.00000  -0.82355 v5,v5c,v5x  -0.82355   0.00000  -0.82355
:VZERY:v0,v0c,v0x  -0.82355   0.00000  -0.82355 v5,v5c,v5x  -0.82355   0.00000  -0.82355
:VZERX:v0,v0c,v0x  -2.41971  -1.20034  -1.21937 v5,v5c,v5x  -0.04001   0.39507  -0.43509

          ATOMIC SPHERE DEPENDENT PARAMETERS FOR ATOM  Cu1       
:e__0001: OVERALL ENERGY PARAMETER IS    0.2458
          OVERALL BASIS SET ON ATOM IS LAPW
:E1_0001: E( 1)=    0.2458
             APW+lo
:E1_0001: E( 1)=   -4.6137   E(BOTTOM)=   -4.680   E(TOP)=   -4.547  1  2   172
             LOCAL ORBITAL
:E2_0001: E( 2)=    0.3154   E(BOTTOM)=   -0.011   E(TOP)=    0.641  0  1   132
             APW+lo
:E0_0001: E( 0)=    0.2458
             APW+lo

          ATOMIC SPHERE DEPENDENT PARAMETERS FOR ATOM  Al1       
:e__0002: OVERALL ENERGY PARAMETER IS    0.2458
          OVERALL BASIS SET ON ATOM IS LAPW
:E1_0002: E( 1)=    0.2458
             APW+lo
:E1_0002: E( 1)=   -4.1464   E(BOTTOM)=   -4.251   E(TOP)=   -4.042  0  1   164
             LOCAL ORBITAL
:E0_0002: E( 0)=    0.2458
             APW+lo

          ATOMIC SPHERE DEPENDENT PARAMETERS FOR ATOM  O 1       
:e__0003: OVERALL ENERGY PARAMETER IS    0.2458
          OVERALL BASIS SET ON ATOM IS LAPW
:E0_0003: E( 0)=   -1.5500   E(BOTTOM)=   -2.724   E(TOP)= -200.000  1 -1   236
             APW+lo
:E0_0003: E( 0)=    0.6458
             LOCAL ORBITAL
:E1_0003: E( 1)=    0.2458
             APW+lo

       K=   0.00000   0.00000   0.00000            1
:RKM  : MATRIX SIZE   616LOs:  29  RKM= 6.98  WEIGHT= 1.00  PGR:    
       EIGENVALUES ARE:
:EIG00001:      -4.6043379   -4.5963016   -4.5963016   -4.1212148   -4.1212148
:EIG00006:      -4.1180250   -1.1423523   -0.9982091   -0.1690965    0.1214241
:EIG00011:       0.1214241    0.1253998    0.1938420    0.1938420    0.2275738
:EIG00016:       0.3513438    0.3513438    0.3929648    0.3929648    0.6027654
:EIG00021:       0.9195322    0.9795401    1.3524079    1.4995899    1.4995899
:EIG00026:       1.5786104    1.5997345    1.5997345    1.8996985
       ********************************************************

:KPT   :      NUMBER OF K-POINTS:    65
       Insulator, EF-inconsistency corrected
:GAP  :    0.1351 Ry =     1.837 eV   (provided you have a proper k-mesh)
         Bandranges (emin - emax) and occupancy:
:BAN00009:   9   -0.169096   -0.074358  2.00000000
:BAN00010:  10   -0.126045    0.121424  2.00000000
:BAN00011:  11   -0.061432    0.134806  2.00000000
:BAN00012:  12    0.037686    0.136855  2.00000000
:BAN00013:  13    0.074487    0.193842  2.00000000
:BAN00014:  14    0.103469    0.193842  2.00000000
:BAN00015:  15    0.227574    0.337518  2.00000000
:BAN00016:  16    0.340900    0.367247  2.00000000
:BAN00017:  17    0.351344    0.395314  2.00000000
:BAN00018:  18    0.371083    0.403444  2.00000000
:BAN00019:  19    0.387696    0.467708  2.00000000
:BAN00020:  20    0.602765    0.842283  0.00000000
:BAN00021:  21    0.790153    1.094686  0.00000000
:BAN00022:  22    0.979540    1.175418  0.00000000
:BAN00023:  23    1.116936    1.355750  0.00000000
:BAN00024:  24    1.227652    1.502467  0.00000000
        Energy to separate low and high energystates:   -0.21910


:NOE  : NUMBER OF ELECTRONS          =  38.000

:FER  : F E R M I - ENERGY(TETRAH.M.)=   0.4677076948
:GMA  : POTENTIAL AND CHARGE CUT-OFF  12.00 Ry**.5




:POS001: ATOM   -1 X,Y,Z = 0.00000 0.00000 0.00000  MULT= 1  ZZ= 29.000  Cu1       

       LMMAX  7
       LM=   0 0  2 0  4 0  4 3  6 0  6 3  6 6

:CHA001: TOTAL VALENCE CHARGE INSIDE SPHERE   1 =  15.3928    (RMT=  2.0000 )
:PCS001: PARTIAL CHARGES SPHERE =  1 S,P,D,F,PZ,PXY, D-Z2,D-XY,X2Y2,D-XZ,YZ 
:QTL001: 0.2356 6.1325 9.0011 0.0175 2.0980 4.0345 0.0000 1.6120 3.6529 3.7362 0.0000 0.0000
        Q-s-low E-s-low   Q-p-low E-p-low   Q-d-low E-d-low   Q-f-low E-f-low
:EPL001:  0.0144 -1.0241    6.0000 -4.5896    0.0178 -1.0222    0.0027 -1.0224
        Q-s-hi  E-s-hi    Q-p-hi  E-p-hi    Q-d-hi  E-d-hi    Q-f-hi  E-f-hi 
:EPH001:  0.2212  0.1667    0.1325  0.1073    8.9833  0.3530    0.0149  0.0799
:VZZ001: EFG INSIDE SPHERE   1 =    -4.043563      UP TO R =   2.00000




:POS002: ATOM   -2 X,Y,Z = 0.50000 0.50000 0.50000  MULT= 1  ZZ= 13.000  Al1       

       LMMAX  7
       LM=   0 0  2 0  4 0  4 3  6 0  6 3  6 6

:CHA002: TOTAL VALENCE CHARGE INSIDE SPHERE   2 =   6.5664    (RMT=  1.8000 )
:PCS002: PARTIAL CHARGES SPHERE =  2 S,P,D,F,PZ,PXY, D-Z2,D-XY,X2Y2,D-XZ,YZ 
:QTL002: 0.2009 6.2227 0.1184 0.0198 2.0646 4.1582 0.0000 0.0087 0.0505 0.0591 0.0000 0.0000
        Q-s-low E-s-low   Q-p-low E-p-low   Q-d-low E-d-low   Q-f-low E-f-low
:EPL002:  0.0324 -1.0840    6.0088 -4.1006    0.0159 -0.9973    0.0030 -1.0179
        Q-s-hi  E-s-hi    Q-p-hi  E-p-hi    Q-d-hi  E-d-hi    Q-f-hi  E-f-hi 
:EPH002:  0.1685 -0.0730    0.2139  0.0302    0.1025  0.0824    0.0168  0.0995
:VZZ002: EFG INSIDE SPHERE   2 =     1.024971      UP TO R =   1.80000




:POS003: ATOM   -3 X,Y,Z = 0.10979 0.10979 0.10979  MULT= 2  ZZ=  8.000  O 1       

       LMMAX 12
       LM=   0 0  1 0  2 0  3 0  3 3  4 0  4 3  5 0  5 3  6 0  6 3  6 6

:CHA003: TOTAL VALENCE CHARGE INSIDE SPHERE   3 =   4.8409    (RMT=  1.4000 )
:PCS003: PARTIAL CHARGES SPHERE =  3 S,P,D,F,PZ,PXY, D-Z2,D-XY,X2Y2,D-XZ,YZ 
:QTL003: 1.4096 3.4237 0.0067 0.0007 1.1129 2.3108 0.0000 0.0014 0.0011 0.0042 0.0000 0.0000
        Q-s-low E-s-low   Q-p-low E-p-low   Q-d-low E-d-low   Q-f-low E-f-low
:EPL003:  1.3642 -1.0235    0.0061 -1.2274    0.0003 -2.5761    0.0001 -2.3988
        Q-s-hi  E-s-hi    Q-p-hi  E-p-hi    Q-d-hi  E-d-hi    Q-f-hi  E-f-hi 
:EPH003:  0.0454 -0.0162    3.4176  0.0597    0.0065  0.2214    0.0006  0.2667
:VZZ003: EFG INSIDE SPHERE   3 =     2.870511      UP TO R =   1.40000

:CHA  : TOTAL VALENCE CHARGE INSIDE UNIT CELL =      38.000000

:SUM  : SUM OF EIGENVALUES =         -52.369090534


        1.ATOM      Cu1                   5 CORE STATES
:1S 001: 1S                -649.641191285 Ry
:2S 001: 2S                 -77.365067997 Ry
:2PP001: 2P*                -67.678657711 Ry
:2P 001: 2P                 -66.172795077 Ry
:3S 001: 3S                  -7.733033933 Ry

        2.ATOM      Al1                   2 CORE STATES
:1S 002: 1S                -110.056977761 Ry
:2S 002: 2S                  -6.950944905 Ry

        3.ATOM      O 1                   1 CORE STATES
       CORE-FORCE in mRy/a.u. = |F|      Fx             Fy             Fz
:FCO003:   3.ATOM    133.488108557      0.000000000      0.000000000    133.488108557

:1S 003: 1S                 -36.842246576 Ry
:CINT001 Core Integral Atom   1   11.998525
:CINT002 Core Integral Atom   2    3.995936
:CINT003 Core Integral Atom   3    1.999999

       DENSITY AT NUCLEUS
        JATOM        VALENCE       SEMI-CORE          CORE           TOTAL
:RTO001:   1        6.668449        0.000000    22630.068322    22636.736771
:RTO002:   2        2.526919        0.000000     1486.842367     1489.369286
:RTO003:   3       15.297003        0.000000      303.917144      319.214147
     
       CHARGES OF NEW CHARGE DENSITY
:NTO   : INTERSTITIAL CHARGE =     6.358950
:NTO001: CHARGE SPHERE  1    =    27.391294
:NTO002: CHARGE SPHERE  2    =    10.562326
:NTO003: CHARGE SPHERE  3    =     6.840933

:NEC01: NUCLEAR AND ELECTRONIC CHARGE     58.00000    57.99444
     
       CHARGES OF OLD CHARGE DENSITY
:OTO   : INTERSTITIAL CHARGE =     7.041299
:OTO001: CHARGE SPHERE  1    =    27.302427
:OTO002: CHARGE SPHERE  2    =    10.804357
:OTO003: CHARGE SPHERE  3    =     6.425958

:NEC02: NUCLEAR AND ELECTRONIC CHARGE     58.00000    58.00000
     
       CONVERGENCE TEST
:DTO001: DIFFERENCE IN SPHERE  1 =  0.2880483
:DTO002: DIFFERENCE IN SPHERE  2 =  0.2239893
:DTO003: DIFFERENCE IN SPHERE  3 =  0.5052744

:DIS  :  CHARGE DISTANCE       ( 0.5052744 for atom    3 spin 1)      0.3806466
:BIG check (qbig,qrms,qtot)    0.168D+00   0.284D+00   0.381D+00
 
******************************************************
* MULTISECANT MIXING VER6 RELEASE 6.0 OPTIONS        *
* Standard Mode with controls                        *
* Regularization       1.000E-06                     *
* Trust Region Control Active                        *
* Max Number of Memory Steps    8                    *
******************************************************
 
:PLANE:  INTERSTITIAL TOTAL      1.69330 DISTAN  1.762E+01 % 
:CHARG:  CLM CHARGE   /ATOM     54.22898 DISTAN  1.191E+00 % 
:REDuction and DMIX in Broyd:    0.9334    0.1867
 
 Step History DMIX, Red, Pred, Trust, FRMS, FABS
  2  3.5000E-02  1.0000E+00  1.0000E+00  1.0000E+00
  3  8.7500E-02  1.0000E+00  1.0000E+00  1.0000E+00
  
:NORMS:  Nuclear, Spectral, Froebius, Shanno-Pua   0.2496E+01  0.2493E+01  0.2493E+01  0.3529E+00
:INFO :  Number of Memory Steps    2 Skipping    0
:INFO :  SLambda=    2.4964234  Max    2.4964234

Eigenvalues, unscaled except for SY+YY
   #     SY Real        SY Imag          SS             YY         SY+YY Real      SY+YY Imag
   1   7.058413E-01   0.000000E+00   3.219123E-01   1.999995E+00   3.762074E+00   0.000000E+00
   2   4.440892E-16   0.000000E+00   1.110223E-16   4.804112E-06   4.904485E-06   0.000000E+00
 
:INFO :  Singular value   3.762E+00 Weight  1.0000E+00 Projections  -1.707E+02  1.900E+00
:INFO :  Singular value   4.904E-06 Weight  8.5742E-01 Projections   1.680E+02  2.395E+02
 
:DIRM :  MEMORY 2/8 RESCALE   7.15 RED 0.807 PRED 1.000 NEXT 0.668
:INFO :  Blimit    1.530E+00  1.002E+00  6.463E-01  2.589E+00
:DIRP :  |MSR1|= 9.762E-01 |PRATT|= 2.135E+00 ANGLE=   2.3 DEGREES
:DIRQ :  |MSR1|= 9.282E-01 |PRATT|= 1.937E+00 ANGLE=   5.5 DEGREES
:DIR  :  |MSR1|= 1.347E+00 |PRATT|= 2.883E+00 ANGLE=   4.3 DEGREES
:MIX  :   MSE1   REGULARIZATION: 2.00E-06  GREED: 0.097  Newton 1.00  0.47                
     
       CHARGES OF MIXED CHARGE DENSITY
:CTO   : INTERSTITIAL CHARGE =     6.709313
:CTO001: CHARGE SPHERE  1    =    27.347913
:CTO002: CHARGE SPHERE  2    =    10.691588
:CTO003: CHARGE SPHERE  3    =     6.625593

:NEC03: NUCLEAR AND ELECTRONIC CHARGE     58.00000    58.00000

PW CHANGE     H    K    L       Current     Change     Residue
:PTO001:      0    0    0  6.58054483E-02 -1.512E-03 -3.228E-03
:PTO002:     -1   -1   -1 -2.10403603E-02 -2.465E-03 -5.086E-03
:PTO003:     -2   -2   -2 -6.04224951E-03 -2.974E-03 -6.426E-03
:PTO004:     -1    0    0  1.15422164E-01  4.579E-03  9.151E-03
:PTO005:     -1   -1    0  6.10656597E-02 -3.506E-03 -8.044E-03
:PTO006:     -2   -1   -1 -6.63875485E-02 -1.138E-02 -2.482E-02
:PTO007:     -2   -2   -1 -7.45564223E-02 -8.266E-03 -1.798E-02
:PTO008:     -3   -3   -3  3.14995963E-02  1.514E-03  3.154E-03
:PTO009:     -3   -2   -2  1.77305792E-02 -2.307E-04 -7.576E-04
:PTO010:     -3   -3   -2  5.35865668E-02  7.532E-04  1.070E-03
:PTO011:     -1    0    1  4.48663346E-02 -1.095E-03 -3.035E-03
:PTO012:     -4   -4   -4 -3.93134568E-03 -1.338E-03 -3.081E-03

:ENE  : ********** TOTAL ENERGY IN Ry =        -4097.12091385

       TOTAL FORCE IN mRy/a.u. = |F|     Fx             Fy             Fz     with/without FOR in case.in2
:FOR001:   1.ATOM          0.000          0.000          0.000          0.000 partial forces
:FOR002:   2.ATOM          0.000          0.000          0.000          0.000 partial forces
:FOR003:   3.ATOM        376.371          0.000          0.000       -376.371 partial forces
       TOTAL FORCE WITH RESPECT TO GLOBAL CARTESIAN COORDINATES:
:FCA001:   1.ATOM                         0.000          0.000          0.000 partial forces
:FCA002:   2.ATOM                         0.000          0.000          0.000 partial forces
:FCA003:   3.ATOM                         0.000          0.000       -376.371 partial forces
       TOTAL FORCE WITH RESPECT TO THE GLOBAL COORDINATE SYSTEM:
:FGL001:   1.ATOM                 0.000000000     0.000000000     0.000000000 partial forces
:FGL002:   2.ATOM                 0.000000000     0.000000000     0.000000000 partial forces
:FGL003:   3.ATOM              -376.371075896  -376.371075896  -376.371075896 partial forces


            ---------
:ITE004:  4. ITERATION
            ---------

:NATO :    3 INDEPENDENT AND    4 TOTAL ATOMS IN UNITCELL
       SUBSTANCE: CuAlO2 BenkoF84                                             

       LATTICE                      = R   
:POT  : POTENTIAL OPTION EX_PBE EC_PBE VX_PBE VC_PBE
:LAT  : LATTICE CONSTANTS=  5.40508  5.40508 32.03482
:VOL  : UNIT CELL VOLUME =     270.16967
       MODE OF CALCULATION IS       = RELA
       NON-SPINPOLARIZED CALCULATION
:IFFT  : FFT-parameters:   90   90   90 Factor: 2.00
       ATOMNUMBER=  1 Cu1        VCOUL-ZERO =  0.34219E+00
:EFG001:                        EFG         =    -2.16901   *10**21  V / m**2
                               V20  TOT/SRF=    -1.87842     0.10472
                               V22  TOT/SRF=     0.00000     0.00000
                               V22M TOT/SRF=     0.00000     0.00000
                               V21  TOT/SRF=     0.00000     0.00000
                               V21M TOT/SRF=     0.00000     0.00000

              1.08451    0.00000    0.00000        1.08451    0.00000    0.00000
              0.00000    1.08451    0.00000        0.00000    1.08451    0.00000
              0.00000    0.00000   -2.16901        0.00000    0.00000   -2.16901

         MAIN DIRECTIONS OF THE EFG   1.0000  0.0000  0.0000
                                      0.0000  1.0000  0.0000
                                      0.0000  0.0000  1.0000
:ANG001:  ANGLE WITH OLD X-AXIS =         0.0

:ETA001:                         ASYMM. ETA =     0.00000


       ATOMNUMBER=  2 Al1        VCOUL-ZERO = -0.79794E-01
:EFG002:                        EFG         =     0.51836   *10**21  V / m**2
                               V20  TOT/SRF=     0.44891    -0.03998
                               V22  TOT/SRF=     0.00000     0.00000
                               V22M TOT/SRF=     0.00000     0.00000
                               V21  TOT/SRF=     0.00000     0.00000
                               V21M TOT/SRF=     0.00000     0.00000

             -0.25918    0.00000    0.00000       -0.25918    0.00000    0.00000
              0.00000   -0.25918    0.00000        0.00000   -0.25918    0.00000
              0.00000    0.00000    0.51836        0.00000    0.00000    0.51836

         MAIN DIRECTIONS OF THE EFG   1.0000  0.0000  0.0000
                                      0.0000  1.0000  0.0000
                                      0.0000  0.0000  1.0000
:ANG002:  ANGLE WITH OLD X-AXIS =         0.0

:ETA002:                         ASYMM. ETA =     0.00000


       ATOMNUMBER=  3 O 1        VCOUL-ZERO =  0.18279E+00
:EFG003:                        EFG         =     1.64331   *10**21  V / m**2
                               V20  TOT/SRF=     1.42314     0.26276
                               V22  TOT/SRF=     0.00000     0.00000
                               V22M TOT/SRF=     0.00000     0.00000
                               V21  TOT/SRF=     0.00000     0.00000
                               V21M TOT/SRF=     0.00000     0.00000

             -0.82165    0.00000    0.00000       -0.82165    0.00000    0.00000
              0.00000   -0.82165    0.00000        0.00000   -0.82165    0.00000
              0.00000    0.00000    1.64331        0.00000    0.00000    1.64331

         MAIN DIRECTIONS OF THE EFG   1.0000  0.0000  0.0000
                                      0.0000  1.0000  0.0000
                                      0.0000  0.0000  1.0000
:ANG003:  ANGLE WITH OLD X-AXIS =         0.0

:ETA003:                         ASYMM. ETA =     0.00000


     HELLMANN-FEYNMAN-FORCE IN mRy/a.u. = |F|  Fx       Fy             Fz
:FHF001:   1.ATOM      0.000000000      0.000000000      0.000000000      0.000000000

     HELLMANN-FEYNMAN-FORCE IN mRy/a.u. = |F|  Fx       Fy             Fz
:FHF002:   2.ATOM      0.000000000      0.000000000      0.000000000      0.000000000

     HELLMANN-FEYNMAN-FORCE IN mRy/a.u. = |F|  Fx       Fy             Fz
:FHF003:   3.ATOM    129.098081762      0.000000000      0.000000000   -129.098081762

:FIT001: LUSE= 13 SIGMA OF V-XC FIT FOR ATOM  1  0.6992746E-02
:FIT001: LUSE= 13 SIGMA OF V-XC FIT FOR ATOM  1  0.6992746E-02
:FIT002: LUSE= 13 SIGMA OF V-XC FIT FOR ATOM  2  0.4827248E-02
:FIT002: LUSE= 13 SIGMA OF V-XC FIT FOR ATOM  2  0.4827248E-02
:FIT003: LUSE= 13 SIGMA OF V-XC FIT FOR ATOM  3  0.9696221E-04
:FIT003: LUSE= 13 SIGMA OF V-XC FIT FOR ATOM  3  0.9696221E-04
:DEN  : DENSITY INTEGRAL  =         -1798.86374273   (Ry)
       ELS_POTENTIAL_AT Z=0 and Z=0.5:   0.00000   0.00000
       ELS_POTENTIAL_AT Y=0 and Y=0.5:   0.00000   0.00000
:VZERO:v0,v0c,v0x  -0.80316   0.00000  -0.80316 v5,v5c,v5x  -0.80316   0.00000  -0.80316
:VZERY:v0,v0c,v0x  -0.80316   0.00000  -0.80316 v5,v5c,v5x  -0.80316   0.00000  -0.80316
:VZERX:v0,v0c,v0x  -2.27795  -1.06008  -1.21786 v5,v5c,v5x  -0.10932   0.26346  -0.37278

          ATOMIC SPHERE DEPENDENT PARAMETERS FOR ATOM  Cu1       
:e__0001: OVERALL ENERGY PARAMETER IS    0.2677
          OVERALL BASIS SET ON ATOM IS LAPW
:E1_0001: E( 1)=    0.2677
             APW+lo
:E1_0001: E( 1)=   -4.5545   E(BOTTOM)=   -4.623   E(TOP)=   -4.486  1  2   179
             LOCAL ORBITAL
:E2_0001: E( 2)=    0.3589   E(BOTTOM)=    0.018   E(TOP)=    0.700  0  1   136
             APW+lo
:E0_0001: E( 0)=    0.2677
             APW+lo

          ATOMIC SPHERE DEPENDENT PARAMETERS FOR ATOM  Al1       
:e__0002: OVERALL ENERGY PARAMETER IS    0.2677
          OVERALL BASIS SET ON ATOM IS LAPW
:E1_0002: E( 1)=    0.2677
             APW+lo
:E1_0002: E( 1)=   -4.1960   E(BOTTOM)=   -4.298   E(TOP)=   -4.094  0  1   158
             LOCAL ORBITAL
:E0_0002: E( 0)=    0.2677
             APW+lo

          ATOMIC SPHERE DEPENDENT PARAMETERS FOR ATOM  O 1       
:e__0003: OVERALL ENERGY PARAMETER IS    0.2677
          OVERALL BASIS SET ON ATOM IS LAPW
:E0_0003: E( 0)=   -1.5500   E(BOTTOM)=   -2.534   E(TOP)= -200.000  1 -1   227
             APW+lo
:E0_0003: E( 0)=    0.6677
             LOCAL ORBITAL
:E1_0003: E( 1)=    0.2677
             APW+lo

       K=   0.00000   0.00000   0.00000            1
:RKM  : MATRIX SIZE   616LOs:  29  RKM= 6.98  WEIGHT= 1.00  PGR:    
       EIGENVALUES ARE:
:EIG00001:      -4.5421672   -4.5375673   -4.5375673   -4.1710225   -4.1701036
:EIG00006:      -4.1701036   -0.9994292   -0.8399767   -0.0720643    0.2271110
:EIG00011:       0.2682966    0.2682966    0.2758884    0.3612550    0.3612550
:EIG00016:       0.3866710    0.3866710    0.4549226    0.4549226    0.6712422
:EIG00021:       0.9686335    1.0574803    1.3730680    1.5341126    1.5341126
:EIG00026:       1.6398258    1.6398258    1.6477718    1.8781757    1.9557757
:EIG00031:       1.9557757
       ********************************************************

:KPT   :      NUMBER OF K-POINTS:    65
       Insulator, EF-inconsistency corrected
:GAP  :    0.1411 Ry =     1.919 eV   (provided you have a proper k-mesh)
         Bandranges (emin - emax) and occupancy:
:BAN00009:   9   -0.072064    0.051756  2.00000000
:BAN00010:  10   -0.014656    0.227111  2.00000000
:BAN00011:  11    0.056483    0.268297  2.00000000
:BAN00012:  12    0.156012    0.296007  2.00000000
:BAN00013:  13    0.203947    0.318138  2.00000000
:BAN00014:  14    0.239566    0.361255  2.00000000
:BAN00015:  15    0.311085    0.373486  2.00000000
:BAN00016:  16    0.374688    0.426186  2.00000000
:BAN00017:  17    0.386671    0.445792  2.00000000
:BAN00018:  18    0.423620    0.476006  2.00000000
:BAN00019:  19    0.445907    0.530149  2.00000000
:BAN00020:  20    0.671242    0.831633  0.00000000
:BAN00021:  21    0.850908    1.127781  0.00000000
:BAN00022:  22    1.046246    1.239411  0.00000000
:BAN00023:  23    1.145206    1.425417  0.00000000
:BAN00024:  24    1.286648    1.538288  0.00000000
        Energy to separate low and high energystates:   -0.12206


:NOE  : NUMBER OF ELECTRONS          =  38.000

:FER  : F E R M I - ENERGY(TETRAH.M.)=   0.5301488730
:GMA  : POTENTIAL AND CHARGE CUT-OFF  12.00 Ry**.5




:POS001: ATOM   -1 X,Y,Z = 0.00000 0.00000 0.00000  MULT= 1  ZZ= 29.000  Cu1       

       LMMAX  7
       LM=   0 0  2 0  4 0  4 3  6 0  6 3  6 6

:CHA001: TOTAL VALENCE CHARGE INSIDE SPHERE   1 =  15.3330    (RMT=  2.0000 )
:PCS001: PARTIAL CHARGES SPHERE =  1 S,P,D,F,PZ,PXY, D-Z2,D-XY,X2Y2,D-XZ,YZ 
:QTL001: 0.3004 6.1726 8.8362 0.0181 2.1158 4.0567 0.0000 1.5229 3.6007 3.7126 0.0000 0.0000
        Q-s-low E-s-low   Q-p-low E-p-low   Q-d-low E-d-low   Q-f-low E-f-low
:EPL001:  0.0186 -0.8648    6.0021 -4.5276    0.0211 -0.8620    0.0028 -0.8565
        Q-s-hi  E-s-hi    Q-p-hi  E-p-hi    Q-d-hi  E-d-hi    Q-f-hi  E-f-hi 
:EPH001:  0.2818  0.2382    0.1704  0.2281    8.8151  0.3921    0.0154  0.2259
:VZZ001: EFG INSIDE SPHERE   1 =    -4.646162      UP TO R =   2.00000




:POS002: ATOM   -2 X,Y,Z = 0.50000 0.50000 0.50000  MULT= 1  ZZ= 13.000  Al1       

       LMMAX  7
       LM=   0 0  2 0  4 0  4 3  6 0  6 3  6 6

:CHA002: TOTAL VALENCE CHARGE INSIDE SPHERE   2 =   6.6727    (RMT=  1.8000 )
:PCS002: PARTIAL CHARGES SPHERE =  2 S,P,D,F,PZ,PXY, D-Z2,D-XY,X2Y2,D-XZ,YZ 
:QTL002: 0.2389 6.2727 0.1361 0.0205 2.0827 4.1900 0.0000 0.0102 0.0571 0.0688 0.0000 0.0000
        Q-s-low E-s-low   Q-p-low E-p-low   Q-d-low E-d-low   Q-f-low E-f-low
:EPL002:  0.0390 -0.9317    6.0160 -4.1464    0.0173 -0.8337    0.0030 -0.8563
        Q-s-hi  E-s-hi    Q-p-hi  E-p-hi    Q-d-hi  E-d-hi    Q-f-hi  E-f-hi 
:EPH002:  0.1999  0.0496    0.2567  0.1699    0.1188  0.2277    0.0176  0.2433
:VZZ002: EFG INSIDE SPHERE   2 =     1.127421      UP TO R =   1.80000




:POS003: ATOM   -3 X,Y,Z = 0.10979 0.10979 0.10979  MULT= 2  ZZ=  8.000  O 1       

       LMMAX 12
       LM=   0 0  1 0  2 0  3 0  3 3  4 0  4 3  5 0  5 3  6 0  6 3  6 6

:CHA003: TOTAL VALENCE CHARGE INSIDE SPHERE   3 =   4.4848    (RMT=  1.4000 )
:PCS003: PARTIAL CHARGES SPHERE =  3 S,P,D,F,PZ,PXY, D-Z2,D-XY,X2Y2,D-XZ,YZ 
:QTL003: 1.3670 3.1095 0.0073 0.0008 0.9965 2.1130 0.0000 0.0015 0.0014 0.0044 0.0000 0.0000
        Q-s-low E-s-low   Q-p-low E-p-low   Q-d-low E-d-low   Q-f-low E-f-low
:EPL003:  1.3096 -0.8636    0.0051 -1.0996    0.0003 -2.3268    0.0001 -2.1854
        Q-s-hi  E-s-hi    Q-p-hi  E-p-hi    Q-d-hi  E-d-hi    Q-f-hi  E-f-hi 
:EPH003:  0.0574  0.1067    3.1044  0.2028    0.0070  0.2998    0.0007  0.3307
:VZZ003: EFG INSIDE SPHERE   3 =     3.738076      UP TO R =   1.40000

:CHA  : TOTAL VALENCE CHARGE INSIDE UNIT CELL =      38.000000

:SUM  : SUM OF EIGENVALUES =         -49.669786352


        1.ATOM      Cu1                   5 CORE STATES
:1S 001: 1S                -649.542131314 Ry
:2S 001: 2S                 -77.256124823 Ry
:2PP001: 2P*                -67.569867149 Ry
:2P 001: 2P                 -66.063984792 Ry
:3S 001: 3S                  -7.668813464 Ry

        2.ATOM      Al1                   2 CORE STATES
:1S 002: 1S                -110.130925800 Ry
:2S 002: 2S                  -7.000723603 Ry

        3.ATOM      O 1                   1 CORE STATES
       CORE-FORCE in mRy/a.u. = |F|      Fx             Fy             Fz
:FCO003:   3.ATOM     43.463587558      0.000000000      0.000000000     43.463587558

:1S 003: 1S                 -36.484450198 Ry
:CINT001 Core Integral Atom   1   11.998458
:CINT002 Core Integral Atom   2    3.996061
:CINT003 Core Integral Atom   3    1.999999

       DENSITY AT NUCLEUS
        JATOM        VALENCE       SEMI-CORE          CORE           TOTAL
:RTO001:   1        8.675009        0.000000    22628.918672    22637.593680
:RTO002:   2        3.031102        0.000000     1487.120712     1490.151813
:RTO003:   3       14.468612        0.000000      303.796739      318.265351
     
       CHARGES OF NEW CHARGE DENSITY
:NTO   : INTERSTITIAL CHARGE =     7.024779
:NTO001: CHARGE SPHERE  1    =    27.331425
:NTO002: CHARGE SPHERE  2    =    10.668728
:NTO003: CHARGE SPHERE  3    =     6.484782

:NEC01: NUCLEAR AND ELECTRONIC CHARGE     58.00000    57.99450
     
       CHARGES OF OLD CHARGE DENSITY
:OTO   : INTERSTITIAL CHARGE =     6.709313
:OTO001: CHARGE SPHERE  1    =    27.347913
:OTO002: CHARGE SPHERE  2    =    10.691588
:OTO003: CHARGE SPHERE  3    =     6.625593

:NEC02: NUCLEAR AND ELECTRONIC CHARGE     58.00000    58.00000
     
       CONVERGENCE TEST
:DTO001: DIFFERENCE IN SPHERE  1 =  0.4458925
:DTO002: DIFFERENCE IN SPHERE  2 =  0.0846848
:DTO003: DIFFERENCE IN SPHERE  3 =  0.3746812

:DIS  :  CHARGE DISTANCE       ( 0.4458925 for atom    1 spin 1)      0.3199849
:BIG check (qbig,qrms,qtot)    0.149D+00   0.247D+00   0.320D+00
 
******************************************************
* MULTISECANT MIXING VER6 RELEASE 6.0 OPTIONS        *
* Standard Mode with controls                        *
* Regularization       1.000E-06                     *
* Trust Region Control Active                        *
* Max Number of Memory Steps    8                    *
******************************************************
 
:PLANE:  INTERSTITIAL TOTAL      1.73222 DISTAN  7.730E+00 % 
:CHARG:  CLM CHARGE   /ATOM     54.27424 DISTAN  8.469E-01 % 
:REDuction and DMIX in Broyd:    0.9762    0.1952
 
 Step History DMIX, Red, Pred, Trust, FRMS, FABS
  2  3.5000E-02  1.0000E+00  1.0000E+00  1.0000E+00
  3  8.7500E-02  8.0663E-01  1.0000E+00  1.0000E+00
  4  9.6946E-02  1.0000E+00  6.6782E-01  2.5892E+00
  
:NORMS:  Nuclear, Spectral, Froebius, Shanno-Pua   0.2269E+01  0.2257E+01  0.2257E+01  0.3885E+00
:INFO :  Number of Memory Steps    3 Skipping    0
:INFO :  SLambda=    2.2691825  Max    2.2691825

Eigenvalues, unscaled except for SY+YY
   #     SY Real        SY Imag          SS             YY         SY+YY Real      SY+YY Imag
   1   1.164919E+00   0.000000E+00   5.886209E-01   2.998826E+00   5.642218E+00   0.000000E+00
   2  -2.937273E-17   0.000000E+00  -2.953268E-17   2.554129E-07   2.713300E-07   0.000000E+00
   3   3.560852E-04   0.000000E+00   1.264670E-04   1.173424E-03   2.004984E-03   0.000000E+00
 
:INFO :  Singular value   5.642E+00 Weight  1.0000E+00 Projections   1.654E+01 -1.187E-01
:INFO :  Singular value   2.005E-03 Weight  1.0000E+00 Projections   1.797E+01 -4.070E+01
:INFO :  Singular value   2.713E-07 Weight  8.1199E-03 Projections  -3.406E+01  1.001E+01
 
:DIRM :  MEMORY 3/8 RESCALE   7.83 RED 0.571 PRED 0.668 NEXT 0.731
:INFO :  Blimit    2.071E+00  1.005E+00  7.844E-01  3.154E+00
:DIRP :  |MSR1|= 3.522E-01 |PRATT|= 1.049E+00 ANGLE=  10.0 DEGREES
:DIRQ :  |MSR1|= 3.985E-01 |PRATT|= 1.379E+00 ANGLE=  15.7 DEGREES
:DIR  :  |MSR1|= 5.318E-01 |PRATT|= 1.732E+00 ANGLE=  14.3 DEGREES
:MIX  :   MSE1   REGULARIZATION: 3.00E-06  GREED: 0.118  Newton 1.00  0.31                
     
       CHARGES OF MIXED CHARGE DENSITY
:CTO   : INTERSTITIAL CHARGE =     6.802135
:CTO001: CHARGE SPHERE  1    =    27.350486
:CTO002: CHARGE SPHERE  2    =    10.680755
:CTO003: CHARGE SPHERE  3    =     6.583312

:NEC03: NUCLEAR AND ELECTRONIC CHARGE     58.00000    58.00000

PW CHANGE     H    K    L       Current     Change     Residue
:PTO001:      0    0    0  6.59522305E-02  1.468E-04  4.081E-04
:PTO002:     -1   -1   -1 -2.14587489E-02 -4.184E-04 -3.585E-04
:PTO003:     -2   -2   -2 -6.67528447E-03 -6.330E-04 -1.540E-03
:PTO004:     -1    0    0  1.15652698E-01  2.305E-04 -1.459E-03
:PTO005:     -1   -1    0  5.94897451E-02 -1.576E-03 -5.042E-03
:PTO006:     -2   -1   -1 -6.91498297E-02 -2.762E-03 -7.289E-03
:PTO007:     -2   -2   -1 -7.59998094E-02 -1.443E-03 -3.847E-03
:PTO008:     -3   -3   -3  3.16260031E-02  1.264E-04 -6.783E-06
:PTO009:     -3   -2   -2  1.74230698E-02 -3.075E-04 -1.449E-03
:PTO010:     -3   -3   -2  5.23812763E-02 -1.205E-03 -4.357E-03
:PTO011:     -1    0    1  4.25236633E-02 -2.343E-03 -7.344E-03
:PTO012:     -4   -4   -4 -4.37527672E-03 -4.439E-04 -1.594E-03

:ENE  : ********** TOTAL ENERGY IN Ry =        -4097.06444135

       TOTAL FORCE IN mRy/a.u. = |F|     Fx             Fy             Fz     with/without FOR in case.in2
:FOR001:   1.ATOM          0.000          0.000          0.000          0.000 partial forces
:FOR002:   2.ATOM          0.000          0.000          0.000          0.000 partial forces
:FOR003:   3.ATOM         85.634          0.000          0.000        -85.634 partial forces
       TOTAL FORCE WITH RESPECT TO GLOBAL CARTESIAN COORDINATES:
:FCA001:   1.ATOM                         0.000          0.000          0.000 partial forces
:FCA002:   2.ATOM                         0.000          0.000          0.000 partial forces
:FCA003:   3.ATOM                         0.000          0.000        -85.634 partial forces
       TOTAL FORCE WITH RESPECT TO THE GLOBAL COORDINATE SYSTEM:
:FGL001:   1.ATOM                 0.000000000     0.000000000     0.000000000 partial forces
:FGL002:   2.ATOM                 0.000000000     0.000000000     0.000000000 partial forces
:FGL003:   3.ATOM               -85.634494204   -85.634494204   -85.634494204 partial forces


            ---------
:ITE005:  5. ITERATION
            ---------

:NATO :    3 INDEPENDENT AND    4 TOTAL ATOMS IN UNITCELL
       SUBSTANCE: CuAlO2 BenkoF84                                             

       LATTICE                      = R   
:POT  : POTENTIAL OPTION EX_PBE EC_PBE VX_PBE VC_PBE
:LAT  : LATTICE CONSTANTS=  5.40508  5.40508 32.03482
:VOL  : UNIT CELL VOLUME =     270.16967
       MODE OF CALCULATION IS       = RELA
       NON-SPINPOLARIZED CALCULATION
:IFFT  : FFT-parameters:   90   90   90 Factor: 2.00
       ATOMNUMBER=  1 Cu1        VCOUL-ZERO =  0.35456E+00
:EFG001:                        EFG         =    -3.16712   *10**21  V / m**2
                               V20  TOT/SRF=    -2.74281     0.13890
                               V22  TOT/SRF=     0.00000     0.00000
                               V22M TOT/SRF=     0.00000     0.00000
                               V21  TOT/SRF=     0.00000     0.00000
                               V21M TOT/SRF=     0.00000     0.00000

              1.58356    0.00000    0.00000        1.58356    0.00000    0.00000
              0.00000    1.58356    0.00000        0.00000    1.58356    0.00000
              0.00000    0.00000   -3.16712        0.00000    0.00000   -3.16712

         MAIN DIRECTIONS OF THE EFG   1.0000  0.0000  0.0000
                                      0.0000  1.0000  0.0000
                                      0.0000  0.0000  1.0000
:ANG001:  ANGLE WITH OLD X-AXIS =         0.0

:ETA001:                         ASYMM. ETA =     0.00000


       ATOMNUMBER=  2 Al1        VCOUL-ZERO = -0.80593E-01
:EFG002:                        EFG         =     0.80001   *10**21  V / m**2
                               V20  TOT/SRF=     0.69283    -0.03539
                               V22  TOT/SRF=     0.00000     0.00000
                               V22M TOT/SRF=     0.00000     0.00000
                               V21  TOT/SRF=     0.00000     0.00000
                               V21M TOT/SRF=     0.00000     0.00000

             -0.40001    0.00000    0.00000       -0.40001    0.00000    0.00000
              0.00000   -0.40001    0.00000        0.00000   -0.40001    0.00000
              0.00000    0.00000    0.80001        0.00000    0.00000    0.80001

         MAIN DIRECTIONS OF THE EFG   1.0000  0.0000  0.0000
                                      0.0000  1.0000  0.0000
                                      0.0000  0.0000  1.0000
:ANG002:  ANGLE WITH OLD X-AXIS =         0.0

:ETA002:                         ASYMM. ETA =     0.00000


       ATOMNUMBER=  3 O 1        VCOUL-ZERO =  0.17645E+00
:EFG003:                        EFG         =     2.33962   *10**21  V / m**2
                               V20  TOT/SRF=     2.02617     0.27827
                               V22  TOT/SRF=     0.00000     0.00000
                               V22M TOT/SRF=     0.00000     0.00000
                               V21  TOT/SRF=     0.00000     0.00000
                               V21M TOT/SRF=     0.00000     0.00000

             -1.16981    0.00000    0.00000       -1.16981    0.00000    0.00000
              0.00000   -1.16981    0.00000        0.00000   -1.16981    0.00000
              0.00000    0.00000    2.33962        0.00000    0.00000    2.33962

         MAIN DIRECTIONS OF THE EFG   1.0000  0.0000  0.0000
                                      0.0000  1.0000  0.0000
                                      0.0000  0.0000  1.0000
:ANG003:  ANGLE WITH OLD X-AXIS =         0.0

:ETA003:                         ASYMM. ETA =     0.00000


     HELLMANN-FEYNMAN-FORCE IN mRy/a.u. = |F|  Fx       Fy             Fz
:FHF001:   1.ATOM      0.000000000      0.000000000      0.000000000      0.000000000

     HELLMANN-FEYNMAN-FORCE IN mRy/a.u. = |F|  Fx       Fy             Fz
:FHF002:   2.ATOM      0.000000000      0.000000000      0.000000000      0.000000000

     HELLMANN-FEYNMAN-FORCE IN mRy/a.u. = |F|  Fx       Fy             Fz
:FHF003:   3.ATOM     98.611917847      0.000000000      0.000000000    -98.611917847

:FIT001: LUSE= 13 SIGMA OF V-XC FIT FOR ATOM  1  0.7163637E-02
:FIT001: LUSE= 13 SIGMA OF V-XC FIT FOR ATOM  1  0.7163637E-02
:FIT002: LUSE= 13 SIGMA OF V-XC FIT FOR ATOM  2  0.4906107E-02
:FIT002: LUSE= 13 SIGMA OF V-XC FIT FOR ATOM  2  0.4906107E-02
:FIT003: LUSE= 13 SIGMA OF V-XC FIT FOR ATOM  3  0.1159960E-03
:FIT003: LUSE= 13 SIGMA OF V-XC FIT FOR ATOM  3  0.1159960E-03
:DEN  : DENSITY INTEGRAL  =         -1796.33216320   (Ry)
       ELS_POTENTIAL_AT Z=0 and Z=0.5:   0.00000   0.00000
       ELS_POTENTIAL_AT Y=0 and Y=0.5:   0.00000   0.00000
:VZERO:v0,v0c,v0x  -0.80270   0.00000  -0.80270 v5,v5c,v5x  -0.80270   0.00000  -0.80270
:VZERY:v0,v0c,v0x  -0.80270   0.00000  -0.80270 v5,v5c,v5x  -0.80270   0.00000  -0.80270
:VZERX:v0,v0c,v0x  -2.29725  -1.08190  -1.21535 v5,v5c,v5x  -0.08429   0.27777  -0.36206

          ATOMIC SPHERE DEPENDENT PARAMETERS FOR ATOM  Cu1       
:e__0001: OVERALL ENERGY PARAMETER IS    0.3301
          OVERALL BASIS SET ON ATOM IS LAPW
:E1_0001: E( 1)=    0.3301
             APW+lo
:E1_0001: E( 1)=   -4.5995   E(BOTTOM)=   -4.667   E(TOP)=   -4.532  1  2   174
             LOCAL ORBITAL
:E2_0001: E( 2)=    0.3232   E(BOTTOM)=   -0.008   E(TOP)=    0.655  0  1   136
             APW+lo
:E0_0001: E( 0)=    0.3301
             APW+lo

          ATOMIC SPHERE DEPENDENT PARAMETERS FOR ATOM  Al1       
:e__0002: OVERALL ENERGY PARAMETER IS    0.3301
          OVERALL BASIS SET ON ATOM IS LAPW
:E1_0002: E( 1)=    0.3301
             APW+lo
:E1_0002: E( 1)=   -4.1899   E(BOTTOM)=   -4.292   E(TOP)=   -4.087  0  1   156
             LOCAL ORBITAL
:E0_0002: E( 0)=    0.3301
             APW+lo

          ATOMIC SPHERE DEPENDENT PARAMETERS FOR ATOM  O 1       
:e__0003: OVERALL ENERGY PARAMETER IS    0.3301
          OVERALL BASIS SET ON ATOM IS LAPW
:E0_0003: E( 0)=   -1.5500   E(BOTTOM)=   -2.561   E(TOP)= -200.000  1 -1   230
             APW+lo
:E0_0003: E( 0)=    0.7301
             LOCAL ORBITAL
:E1_0003: E( 1)=    0.3301
             APW+lo

       K=   0.00000   0.00000   0.00000            1
:RKM  : MATRIX SIZE   616LOs:  29  RKM= 6.98  WEIGHT= 1.00  PGR:    
       EIGENVALUES ARE:
:EIG00001:      -4.5911474   -4.5812855   -4.5812855   -4.1650684   -4.1638905
:EIG00006:      -4.1638905   -1.0209399   -0.8657494   -0.0879402    0.2141882
:EIG00011:       0.2409212    0.2409212    0.2512906    0.3329335    0.3329335
:EIG00016:       0.3556744    0.3556744    0.4185367    0.4185367    0.6435368
:EIG00021:       0.9626982    1.0466647    1.3727781    1.5327956    1.5327956
:EIG00026:       1.6376241    1.6376241    1.6382314    1.8876910    1.9556200
:EIG00031:       1.9556200
       ********************************************************

:KPT   :      NUMBER OF K-POINTS:    65
       Insulator, EF-inconsistency corrected
:GAP  :    0.1491 Ry =     2.028 eV   (provided you have a proper k-mesh)
         Bandranges (emin - emax) and occupancy:
:BAN00009:   9   -0.087940    0.030388  2.00000000
:BAN00010:  10   -0.033540    0.214188  2.00000000
:BAN00011:  11    0.037461    0.242428  2.00000000
:BAN00012:  12    0.133650    0.269343  2.00000000
:BAN00013:  13    0.177909    0.289943  2.00000000
:BAN00014:  14    0.215318    0.332934  2.00000000
:BAN00015:  15    0.281787    0.344612  2.00000000
:BAN00016:  16    0.344986    0.391706  2.00000000
:BAN00017:  17    0.355674    0.411015  2.00000000
:BAN00018:  18    0.389196    0.439959  2.00000000
:BAN00019:  19    0.409766    0.494396  2.00000000
:BAN00020:  20    0.643537    0.831240  0.00000000
:BAN00021:  21    0.844838    1.121440  0.00000000
:BAN00022:  22    1.042149    1.225111  0.00000000
:BAN00023:  23    1.142702    1.414942  0.00000000
:BAN00024:  24    1.281166    1.536404  0.00000000
        Energy to separate low and high energystates:   -0.13794


:NOE  : NUMBER OF ELECTRONS          =  38.000

:FER  : F E R M I - ENERGY(TETRAH.M.)=   0.4943958978
:GMA  : POTENTIAL AND CHARGE CUT-OFF  12.00 Ry**.5




:POS001: ATOM   -1 X,Y,Z = 0.00000 0.00000 0.00000  MULT= 1  ZZ= 29.000  Cu1       

       LMMAX  7
       LM=   0 0  2 0  4 0  4 3  6 0  6 3  6 6

:CHA001: TOTAL VALENCE CHARGE INSIDE SPHERE   1 =  15.4205    (RMT=  2.0000 )
:PCS001: PARTIAL CHARGES SPHERE =  1 S,P,D,F,PZ,PXY, D-Z2,D-XY,X2Y2,D-XZ,YZ 
:QTL001: 0.2840 6.1611 8.9517 0.0180 2.1129 4.0483 0.0000 1.5848 3.6342 3.7327 0.0000 0.0000
        Q-s-low E-s-low   Q-p-low E-p-low   Q-d-low E-d-low   Q-f-low E-f-low
:EPL001:  0.0181 -0.8905    6.0024 -4.5732    0.0212 -0.8878    0.0028 -0.8836
        Q-s-hi  E-s-hi    Q-p-hi  E-p-hi    Q-d-hi  E-d-hi    Q-f-hi  E-f-hi 
:EPH001:  0.2659  0.2195    0.1587  0.1997    8.9305  0.3594    0.0152  0.1979
:VZZ001: EFG INSIDE SPHERE   1 =    -6.347269      UP TO R =   2.00000




:POS002: ATOM   -2 X,Y,Z = 0.50000 0.50000 0.50000  MULT= 1  ZZ= 13.000  Al1       

       LMMAX  7
       LM=   0 0  2 0  4 0  4 3  6 0  6 3  6 6

:CHA002: TOTAL VALENCE CHARGE INSIDE SPHERE   2 =   6.6499    (RMT=  1.8000 )
:PCS002: PARTIAL CHARGES SPHERE =  2 S,P,D,F,PZ,PXY, D-Z2,D-XY,X2Y2,D-XZ,YZ 
:QTL002: 0.2309 6.2619 0.1323 0.0204 2.0790 4.1830 0.0000 0.0098 0.0556 0.0669 0.0000 0.0000
        Q-s-low E-s-low   Q-p-low E-p-low   Q-d-low E-d-low   Q-f-low E-f-low
:EPL002:  0.0375 -0.9553    6.0144 -4.1413    0.0169 -0.8602    0.0030 -0.8824
        Q-s-hi  E-s-hi    Q-p-hi  E-p-hi    Q-d-hi  E-d-hi    Q-f-hi  E-f-hi 
:EPH002:  0.1934  0.0289    0.2475  0.1465    0.1154  0.2034    0.0174  0.2190
:VZZ002: EFG INSIDE SPHERE   2 =     1.148633      UP TO R =   1.80000




:POS003: ATOM   -3 X,Y,Z = 0.10979 0.10979 0.10979  MULT= 2  ZZ=  8.000  O 1       

       LMMAX 12
       LM=   0 0  1 0  2 0  3 0  3 3  4 0  4 3  5 0  5 3  6 0  6 3  6 6

:CHA003: TOTAL VALENCE CHARGE INSIDE SPHERE   3 =   4.5522    (RMT=  1.4000 )
:PCS003: PARTIAL CHARGES SPHERE =  3 S,P,D,F,PZ,PXY, D-Z2,D-XY,X2Y2,D-XZ,YZ 
:QTL003: 1.3749 3.1694 0.0069 0.0008 1.0176 2.1518 0.0000 0.0015 0.0013 0.0041 0.0000 0.0000
        Q-s-low E-s-low   Q-p-low E-p-low   Q-d-low E-d-low   Q-f-low E-f-low
:EPL003:  1.3209 -0.8892    0.0048 -1.1364    0.0003 -2.3720    0.0001 -2.2142
        Q-s-hi  E-s-hi    Q-p-hi  E-p-hi    Q-d-hi  E-d-hi    Q-f-hi  E-f-hi 
:EPH003:  0.0540  0.0879    3.1646  0.1790    0.0066  0.2700    0.0007  0.2997
:VZZ003: EFG INSIDE SPHERE   3 =     3.671262      UP TO R =   1.40000

:CHA  : TOTAL VALENCE CHARGE INSIDE UNIT CELL =      38.000000

:SUM  : SUM OF EIGENVALUES =         -50.588113078


        1.ATOM      Cu1                   5 CORE STATES
:1S 001: 1S                -649.671414085 Ry
:2S 001: 2S                 -77.368179872 Ry
:2PP001: 2P*                -67.685302907 Ry
:2P 001: 2P                 -66.179046524 Ry
:3S 001: 3S                  -7.717062450 Ry

        2.ATOM      Al1                   2 CORE STATES
:1S 002: 1S                -110.108419190 Ry
:2S 002: 2S                  -6.995871688 Ry

        3.ATOM      O 1                   1 CORE STATES
       CORE-FORCE in mRy/a.u. = |F|      Fx             Fy             Fz
:FCO003:   3.ATOM     17.417762832      0.000000000      0.000000000     17.417762832

:1S 003: 1S                 -36.579735516 Ry
:CINT001 Core Integral Atom   1   11.998502
:CINT002 Core Integral Atom   2    3.996054
:CINT003 Core Integral Atom   3    1.999999

       DENSITY AT NUCLEUS
        JATOM        VALENCE       SEMI-CORE          CORE           TOTAL
:RTO001:   1        8.140512        0.000000    22630.562619    22638.703131
:RTO002:   2        2.921809        0.000000     1487.013945     1489.935753
:RTO003:   3       14.643411        0.000000      303.896481      318.539892
     
       CHARGES OF NEW CHARGE DENSITY
:NTO   : INTERSTITIAL CHARGE =     6.825262
:NTO001: CHARGE SPHERE  1    =    27.419007
:NTO002: CHARGE SPHERE  2    =    10.645927
:NTO003: CHARGE SPHERE  3    =     6.552169

:NEC01: NUCLEAR AND ELECTRONIC CHARGE     58.00000    57.99453
     
       CHARGES OF OLD CHARGE DENSITY
:OTO   : INTERSTITIAL CHARGE =     6.802135
:OTO001: CHARGE SPHERE  1    =    27.350486
:OTO002: CHARGE SPHERE  2    =    10.680755
:OTO003: CHARGE SPHERE  3    =     6.583312

:NEC02: NUCLEAR AND ELECTRONIC CHARGE     58.00000    58.00000
     
       CONVERGENCE TEST
:DTO001: DIFFERENCE IN SPHERE  1 =  0.0765613
:DTO002: DIFFERENCE IN SPHERE  2 =  0.0506752
:DTO003: DIFFERENCE IN SPHERE  3 =  0.1851603

:DIS  :  CHARGE DISTANCE       ( 0.1851603 for atom    3 spin 1)      0.1243893
:BIG check (qbig,qrms,qtot)    0.617D-01   0.981D-01   0.124D+00
 
******************************************************
* MULTISECANT MIXING VER6 RELEASE 6.0 OPTIONS        *
* Standard Mode with controls                        *
* Regularization       1.000E-06                     *
* Trust Region Control Active                        *
* Max Number of Memory Steps    8                    *
******************************************************
 
:PLANE:  INTERSTITIAL TOTAL      1.73522 DISTAN  5.115E+00 % 
:CHARG:  CLM CHARGE   /ATOM     54.23864 DISTAN  3.658E-01 % 
 
 Step History DMIX, Red, Pred, Trust, FRMS, FABS
  2  3.5000E-02  1.0000E+00  1.0000E+00  1.0000E+00
  3  8.7500E-02  8.0663E-01  1.0000E+00  1.0000E+00
  4  9.6946E-02  5.7068E-01  6.6782E-01  2.5892E+00
  5  1.1766E-01  1.0000E+00  7.3068E-01  3.1544E+00
  
:NORMS:  Nuclear, Spectral, Froebius, Shanno-Pua   0.1894E+01  0.1732E+01  0.1815E+01  0.4462E+00
:INFO :  Number of Memory Steps    4 Skipping    0
:INFO :  SLambda=    1.8941472  Max    1.8941472

Eigenvalues, unscaled except for SY+YY
   #     SY Real        SY Imag          SS             YY         SY+YY Real      SY+YY Imag
   1   1.477728E+00   0.000000E+00   1.054907E+00   3.163411E+00   5.857962E+00   0.000000E+00
   2   4.039719E-01   0.000000E+00   1.598671E-01   8.363319E-01   1.705950E+00   0.000000E+00
   3   1.990941E-16   0.000000E+00   7.058664E-17   3.362432E-07   3.422687E-07   0.000000E+00
   4   6.032045E-05   0.000000E+00   1.330206E-05   2.565168E-04   4.198820E-04   0.000000E+00
 
:INFO :  Singular value   5.861E+00 Weight  1.0000E+00 Projections  -2.648E+01  2.093E-01
:INFO :  Singular value   1.705E+00 Weight  1.0000E+00 Projections  -7.010E+00  7.210E-01
:INFO :  Singular value   4.199E-04 Weight  9.9994E-01 Projections   3.135E+01 -4.173E+01
:INFO :  Singular value   3.423E-07 Weight  1.1571E-02 Projections  -5.658E+00 -4.851E+00
 
:DIRM :  MEMORY 4/8 RESCALE   7.59 RED 0.525 PRED 0.731 NEXT 0.439
:INFO :  Blimit    2.839E+00  1.094E+00  1.000E+00  4.375E+00
:DIRP :  |MSR1|= 7.706E-01 |PRATT|= 6.736E-01 ANGLE=  13.9 DEGREES
:DIRQ :  |MSR1|= 5.302E-01 |PRATT|= 5.952E-01 ANGLE=  33.4 DEGREES
:DIR  :  |MSR1|= 9.354E-01 |PRATT|= 8.989E-01 ANGLE=  24.1 DEGREES
:MIX  :   MSE1   REGULARIZATION: 3.16E-06  GREED: 0.153  Newton 1.00  1.04                
     
       CHARGES OF MIXED CHARGE DENSITY
:CTO   : INTERSTITIAL CHARGE =     6.800717
:CTO001: CHARGE SPHERE  1    =    27.392194
:CTO002: CHARGE SPHERE  2    =    10.628353
:CTO003: CHARGE SPHERE  3    =     6.589368

:NEC03: NUCLEAR AND ELECTRONIC CHARGE     58.00000    58.00000

[...]
:PTO001:      0    0    0  6.52688379E-02 -9.690E-10 -1.618E-09
:PTO002:     -1   -1   -1 -2.24088932E-02 -1.359E-09 -3.900E-09
:PTO003:     -2   -2   -2 -8.28431958E-03  1.836E-09  3.035E-09
:PTO004:     -1    0    0  1.15217339E-01 -2.342E-09 -3.053E-09
:PTO005:     -1   -1    0  5.61444722E-02 -3.467E-10  2.627E-09
:PTO006:     -2   -1   -1 -7.51696176E-02  5.327E-09  5.672E-09
:PTO007:     -2   -2   -1 -7.99952751E-02  6.424E-09  3.635E-09
:PTO008:     -3   -3   -3  3.17974746E-02 -1.766E-09 -1.696E-09
:PTO009:     -3   -2   -2  1.62729874E-02  6.515E-10 -1.484E-09
:PTO010:     -3   -3   -2  5.01544272E-02 -1.901E-09 -1.157E-09
:PTO011:     -1    0    1  3.87864361E-02 -2.150E-09 -5.706E-10
:PTO012:     -4   -4   -4 -5.42872451E-03  6.687E-10  1.295E-09

:ENE  : ********** TOTAL ENERGY IN Ry =        -4097.04491094

       TOTAL FORCE IN mRy/a.u. = |F|     Fx             Fy             Fz     with/without FOR in case.in2
:FOR001:   1.ATOM          0.000          0.000          0.000          0.000 partial forces
:FOR002:   2.ATOM          0.000          0.000          0.000          0.000 partial forces
:FOR003:   3.ATOM          6.470          0.000          0.000         -6.470 partial forces
       TOTAL FORCE WITH RESPECT TO GLOBAL CARTESIAN COORDINATES:
:FCA001:   1.ATOM                         0.000          0.000          0.000 partial forces
:FCA002:   2.ATOM                         0.000          0.000          0.000 partial forces
:FCA003:   3.ATOM                         0.000          0.000         -6.470 partial forces
       TOTAL FORCE WITH RESPECT TO THE GLOBAL COORDINATE SYSTEM:
:FGL001:   1.ATOM                 0.000000000     0.000000000     0.000000000 partial forces
:FGL002:   2.ATOM                 0.000000000     0.000000000     0.000000000 partial forces
:FGL003:   3.ATOM                -6.470393524    -6.470393524    -6.470393524 partial forces


            ---------
:ITE018: 18. ITERATION
            ---------

:NATO :    3 INDEPENDENT AND    4 TOTAL ATOMS IN UNITCELL
       SUBSTANCE: CuAlO2 BenkoF84                                             

       LATTICE                      = R   
:POT  : POTENTIAL OPTION EX_PBE EC_PBE VX_PBE VC_PBE
:LAT  : LATTICE CONSTANTS=  5.40508  5.40508 32.03482
:VOL  : UNIT CELL VOLUME =     270.16967
       MODE OF CALCULATION IS       = RELA
       NON-SPINPOLARIZED CALCULATION
:IFFT  : FFT-parameters:   90   90   90 Factor: 2.00
       ATOMNUMBER=  1 Cu1        VCOUL-ZERO =  0.37125E+00
:EFG001:                        EFG         =    -5.29505   *10**21  V / m**2
                               V20  TOT/SRF=    -4.58564     0.15027
                               V22  TOT/SRF=     0.00000     0.00000
                               V22M TOT/SRF=     0.00000     0.00000
                               V21  TOT/SRF=     0.00000     0.00000
                               V21M TOT/SRF=     0.00000     0.00000

              2.64752    0.00000    0.00000        2.64752    0.00000    0.00000
              0.00000    2.64752    0.00000        0.00000    2.64752    0.00000
              0.00000    0.00000   -5.29505        0.00000    0.00000   -5.29505

         MAIN DIRECTIONS OF THE EFG   1.0000  0.0000  0.0000
                                      0.0000  1.0000  0.0000
                                      0.0000  0.0000  1.0000
:ANG001:  ANGLE WITH OLD X-AXIS =         0.0

:ETA001:                         ASYMM. ETA =     0.00000


       ATOMNUMBER=  2 Al1        VCOUL-ZERO = -0.96153E-01
:EFG002:                        EFG         =     1.10011   *10**21  V / m**2
                               V20  TOT/SRF=     0.95272    -0.03170
                               V22  TOT/SRF=     0.00000     0.00000
                               V22M TOT/SRF=     0.00000     0.00000
                               V21  TOT/SRF=     0.00000     0.00000
                               V21M TOT/SRF=     0.00000     0.00000

             -0.55006    0.00000    0.00000       -0.55006    0.00000    0.00000
              0.00000   -0.55006    0.00000        0.00000   -0.55006    0.00000
              0.00000    0.00000    1.10011        0.00000    0.00000    1.10011

         MAIN DIRECTIONS OF THE EFG   1.0000  0.0000  0.0000
                                      0.0000  1.0000  0.0000
                                      0.0000  0.0000  1.0000
:ANG002:  ANGLE WITH OLD X-AXIS =         0.0

:ETA002:                         ASYMM. ETA =     0.00000


       ATOMNUMBER=  3 O 1        VCOUL-ZERO =  0.19006E+00
:EFG003:                        EFG         =     3.55492   *10**21  V / m**2
                               V20  TOT/SRF=     3.07865     0.29320
                               V22  TOT/SRF=     0.00000     0.00000
                               V22M TOT/SRF=     0.00000     0.00000
                               V21  TOT/SRF=     0.00000     0.00000
                               V21M TOT/SRF=     0.00000     0.00000

             -1.77746    0.00000    0.00000       -1.77746    0.00000    0.00000
              0.00000   -1.77746    0.00000        0.00000   -1.77746    0.00000
              0.00000    0.00000    3.55492        0.00000    0.00000    3.55492

         MAIN DIRECTIONS OF THE EFG   1.0000  0.0000  0.0000
                                      0.0000  1.0000  0.0000
                                      0.0000  0.0000  1.0000
:ANG003:  ANGLE WITH OLD X-AXIS =         0.0

:ETA003:                         ASYMM. ETA =     0.00000


     HELLMANN-FEYNMAN-FORCE IN mRy/a.u. = |F|  Fx       Fy             Fz
:FHF001:   1.ATOM      0.000000000      0.000000000      0.000000000      0.000000000

     HELLMANN-FEYNMAN-FORCE IN mRy/a.u. = |F|  Fx       Fy             Fz
:FHF002:   2.ATOM      0.000000000      0.000000000      0.000000000      0.000000000

     HELLMANN-FEYNMAN-FORCE IN mRy/a.u. = |F|  Fx       Fy             Fz
:FHF003:   3.ATOM     11.450671690      0.000000000      0.000000000    -11.450671690

:FIT001: LUSE= 13 SIGMA OF V-XC FIT FOR ATOM  1  0.7018519E-02
:FIT001: LUSE= 13 SIGMA OF V-XC FIT FOR ATOM  1  0.7018519E-02
:FIT002: LUSE= 13 SIGMA OF V-XC FIT FOR ATOM  2  0.8281556E-02
:FIT002: LUSE= 13 SIGMA OF V-XC FIT FOR ATOM  2  0.8281556E-02
:FIT003: LUSE= 13 SIGMA OF V-XC FIT FOR ATOM  3  0.2404578E-03
:FIT003: LUSE= 13 SIGMA OF V-XC FIT FOR ATOM  3  0.2404578E-03
:DEN  : DENSITY INTEGRAL  =         -1796.12174578   (Ry)
       ELS_POTENTIAL_AT Z=0 and Z=0.5:   0.00000   0.00000
       ELS_POTENTIAL_AT Y=0 and Y=0.5:   0.00000   0.00000
:VZERO:v0,v0c,v0x  -0.79390   0.00000  -0.79390 v5,v5c,v5x  -0.79390   0.00000  -0.79390
:VZERY:v0,v0c,v0x  -0.79390   0.00000  -0.79390 v5,v5c,v5x  -0.79390   0.00000  -0.79390
:VZERX:v0,v0c,v0x  -2.25419  -1.06592  -1.18827 v5,v5c,v5x  -0.07036   0.25861  -0.32897

          ATOMIC SPHERE DEPENDENT PARAMETERS FOR ATOM  Cu1       
:e__0001: OVERALL ENERGY PARAMETER IS    0.3089
          OVERALL BASIS SET ON ATOM IS LAPW
:E1_0001: E( 1)=    0.3089
             APW+lo
:E1_0001: E( 1)=   -4.5740   E(BOTTOM)=   -4.641   E(TOP)=   -4.507  1  2   175
             LOCAL ORBITAL
:E2_0001: E( 2)=    0.3476   E(BOTTOM)=    0.015   E(TOP)=    0.680  0  1   127
             APW+lo
:E0_0001: E( 0)=    0.3089
             APW+lo

          ATOMIC SPHERE DEPENDENT PARAMETERS FOR ATOM  Al1       
:e__0002: OVERALL ENERGY PARAMETER IS    0.3089
          OVERALL BASIS SET ON ATOM IS LAPW
:E1_0002: E( 1)=    0.3089
             APW+lo
:E1_0002: E( 1)=   -4.2183   E(BOTTOM)=   -4.320   E(TOP)=   -4.116  0  1   159
             LOCAL ORBITAL
:E0_0002: E( 0)=    0.3089
             APW+lo

          ATOMIC SPHERE DEPENDENT PARAMETERS FOR ATOM  O 1       
:e__0003: OVERALL ENERGY PARAMETER IS    0.3089
          OVERALL BASIS SET ON ATOM IS LAPW
:E0_0003: E( 0)=   -1.5500   E(BOTTOM)=   -2.575   E(TOP)= -200.000  1 -1   229
             APW+lo
:E0_0003: E( 0)=    0.7089
             LOCAL ORBITAL
:E1_0003: E( 1)=    0.3089
             APW+lo

       K=   0.00000   0.00000   0.00000            1
:RKM  : MATRIX SIZE   616LOs:  29  RKM= 6.98  WEIGHT= 1.00  PGR:    
       EIGENVALUES ARE:
:EIG00001:      -4.5693512   -4.5538658   -4.5538658   -4.1937437   -4.1923708
:EIG00006:      -4.1923708   -1.0326359   -0.8780196   -0.0929902    0.2309554
:EIG00011:       0.2319915    0.2319915    0.2399204    0.3176190    0.3176190
:EIG00016:       0.3816213    0.3816213    0.4357274    0.4357274    0.6509584
:EIG00021:       0.9616226    1.0421584    1.3765390    1.5252111    1.5252111
:EIG00026:       1.6332107    1.6332107    1.6338642    1.8975602    1.9690507
:EIG00031:       1.9690507
       ********************************************************

:KPT   :      NUMBER OF K-POINTS:    65
       Insulator, EF-inconsistency corrected
:GAP  :    0.1421 Ry =     1.932 eV   (provided you have a proper k-mesh)
         Bandranges (emin - emax) and occupancy:
:BAN00009:   9   -0.092990    0.019257  2.00000000
:BAN00010:  10   -0.040919    0.230955  2.00000000
:BAN00011:  11    0.028188    0.245008  2.00000000
:BAN00012:  12    0.128035    0.254434  2.00000000
:BAN00013:  13    0.172692    0.278706  2.00000000
:BAN00014:  14    0.207307    0.317619  2.00000000
:BAN00015:  15    0.278284    0.367097  2.00000000
:BAN00016:  16    0.370140    0.409044  2.00000000
:BAN00017:  17    0.381621    0.437741  2.00000000
:BAN00018:  18    0.408811    0.451720  2.00000000
:BAN00019:  19    0.428235    0.508898  2.00000000
:BAN00020:  20    0.650958    0.843325  0.00000000
:BAN00021:  21    0.843478    1.119274  0.00000000
:BAN00022:  22    1.039724    1.215659  0.00000000
:BAN00023:  23    1.142244    1.411445  0.00000000
:BAN00024:  24    1.282894    1.528913  0.00000000
        Energy to separate low and high energystates:   -0.14299


:NOE  : NUMBER OF ELECTRONS          =  38.000

:FER  : F E R M I - ENERGY(TETRAH.M.)=   0.5088975705
:GMA  : POTENTIAL AND CHARGE CUT-OFF  12.00 Ry**.5




:POS001: ATOM   -1 X,Y,Z = 0.00000 0.00000 0.00000  MULT= 1  ZZ= 29.000  Cu1       

       LMMAX  7
       LM=   0 0  2 0  4 0  4 3  6 0  6 3  6 6

:CHA001: TOTAL VALENCE CHARGE INSIDE SPHERE   1 =  15.3735    (RMT=  2.0000 )
:PCS001: PARTIAL CHARGES SPHERE =  1 S,P,D,F,PZ,PXY, D-Z2,D-XY,X2Y2,D-XZ,YZ 
:QTL001: 0.2760 6.1570 8.9169 0.0180 2.1095 4.0474 0.0000 1.5687 3.6220 3.7262 0.0000 0.0000
        Q-s-low E-s-low   Q-p-low E-p-low   Q-d-low E-d-low   Q-f-low E-f-low
:EPL001:  0.0174 -0.9030    6.0018 -4.5481    0.0204 -0.9005    0.0028 -0.8977
        Q-s-hi  E-s-hi    Q-p-hi  E-p-hi    Q-d-hi  E-d-hi    Q-f-hi  E-f-hi 
:EPH001:  0.2586  0.2231    0.1551  0.1975    8.8965  0.3828    0.0152  0.1879
:VZZ001: EFG INSIDE SPHERE   1 =    -5.550129      UP TO R =   2.00000




:POS002: ATOM   -2 X,Y,Z = 0.50000 0.50000 0.50000  MULT= 1  ZZ= 13.000  Al1       

       LMMAX  7
       LM=   0 0  2 0  4 0  4 3  6 0  6 3  6 6

:CHA002: TOTAL VALENCE CHARGE INSIDE SPHERE   2 =   6.6491    (RMT=  1.8000 )
:PCS002: PARTIAL CHARGES SPHERE =  2 S,P,D,F,PZ,PXY, D-Z2,D-XY,X2Y2,D-XZ,YZ 
:QTL002: 0.2305 6.2613 0.1323 0.0205 2.0784 4.1829 0.0000 0.0097 0.0557 0.0668 0.0000 0.0000
        Q-s-low E-s-low   Q-p-low E-p-low   Q-d-low E-d-low   Q-f-low E-f-low
:EPL002:  0.0374 -0.9677    6.0146 -4.1697    0.0170 -0.8731    0.0030 -0.8953
        Q-s-hi  E-s-hi    Q-p-hi  E-p-hi    Q-d-hi  E-d-hi    Q-f-hi  E-f-hi 
:EPH002:  0.1932  0.0182    0.2467  0.1348    0.1153  0.1917    0.0175  0.2072
:VZZ002: EFG INSIDE SPHERE   2 =     1.202610      UP TO R =   1.80000




:POS003: ATOM   -3 X,Y,Z = 0.10979 0.10979 0.10979  MULT= 2  ZZ=  8.000  O 1       

       LMMAX 12
       LM=   0 0  1 0  2 0  3 0  3 3  4 0  4 3  5 0  5 3  6 0  6 3  6 6

:CHA003: TOTAL VALENCE CHARGE INSIDE SPHERE   3 =   4.5897    (RMT=  1.4000 )
:PCS003: PARTIAL CHARGES SPHERE =  3 S,P,D,F,PZ,PXY, D-Z2,D-XY,X2Y2,D-XZ,YZ 
:QTL003: 1.3779 3.2039 0.0070 0.0008 1.0341 2.1698 0.0000 0.0015 0.0013 0.0043 0.0000 0.0000
        Q-s-low E-s-low   Q-p-low E-p-low   Q-d-low E-d-low   Q-f-low E-f-low
:EPL003:  1.3248 -0.9019    0.0049 -1.1436    0.0003 -2.3874    0.0001 -2.2382
        Q-s-hi  E-s-hi    Q-p-hi  E-p-hi    Q-d-hi  E-d-hi    Q-f-hi  E-f-hi 
:EPH003:  0.0531  0.0766    3.1990  0.1668    0.0067  0.2775    0.0007  0.3128
:VZZ003: EFG INSIDE SPHERE   3 =     3.227556      UP TO R =   1.40000

:CHA  : TOTAL VALENCE CHARGE INSIDE UNIT CELL =      38.000000

:SUM  : SUM OF EIGENVALUES =         -50.563590982


        1.ATOM      Cu1                   5 CORE STATES
:1S 001: 1S                -649.655105942 Ry
:2S 001: 2S                 -77.347192503 Ry
:2PP001: 2P*                -67.664741419 Ry
:2P 001: 2P                 -66.158427758 Ry
:3S 001: 3S                  -7.691313027 Ry

        2.ATOM      Al1                   2 CORE STATES
:1S 002: 1S                -110.140505977 Ry
:2S 002: 2S                  -7.024749413 Ry

        3.ATOM      O 1                   1 CORE STATES
       CORE-FORCE in mRy/a.u. = |F|      Fx             Fy             Fz
:FCO003:   3.ATOM      4.980552978      0.000000000      0.000000000      4.980552978

:1S 003: 1S                 -36.669661647 Ry
:CINT001 Core Integral Atom   1   11.998496
:CINT002 Core Integral Atom   2    3.996085
:CINT003 Core Integral Atom   3    1.999999

       DENSITY AT NUCLEUS
        JATOM        VALENCE       SEMI-CORE          CORE           TOTAL
:RTO001:   1        7.887883        0.000000    22630.711626    22638.599510
:RTO002:   2        2.917439        0.000000     1487.081262     1489.998701
:RTO003:   3       14.717145        0.000000      304.058171      318.775316
     
       CHARGES OF NEW CHARGE DENSITY
:NTO   : INTERSTITIAL CHARGE =     6.797890
:NTO001: CHARGE SPHERE  1    =    27.372013
:NTO002: CHARGE SPHERE  2    =    10.645209
:NTO003: CHARGE SPHERE  3    =     6.589723

:NEC01: NUCLEAR AND ELECTRONIC CHARGE     58.00000    57.99456
     
       CHARGES OF OLD CHARGE DENSITY
:OTO   : INTERSTITIAL CHARGE =     6.803332
:OTO001: CHARGE SPHERE  1    =    27.372013
:OTO002: CHARGE SPHERE  2    =    10.645209
:OTO003: CHARGE SPHERE  3    =     6.589723

:NEC02: NUCLEAR AND ELECTRONIC CHARGE     58.00000    58.00000
     
       CONVERGENCE TEST
:DTO001: DIFFERENCE IN SPHERE  1 =  0.0000003
:DTO002: DIFFERENCE IN SPHERE  2 =  0.0000001
:DTO003: DIFFERENCE IN SPHERE  3 =  0.0000007

:DIS  :  CHARGE DISTANCE       ( 0.0000007 for atom    3 spin 1)      0.0000005
:BIG check (qbig,qrms,qtot)    0.227D-06   0.363D-06   0.451D-06
 
******************************************************
* MULTISECANT MIXING VER6 RELEASE 6.0 OPTIONS        *
* Standard Mode with controls                        *
* Regularization       1.000E-06                     *
* Trust Region Control Active                        *
* Max Number of Memory Steps    8                    *
******************************************************
 
:PLANE:  INTERSTITIAL TOTAL      1.73815 DISTAN  5.456E-06 % 
:CHARG:  CLM CHARGE   /ATOM     54.22791 DISTAN  6.930E-07 % 
 
 Step History DMIX, Red, Pred, Trust, FRMS, FABS
 11  2.0000E-01  2.1305E-01  1.5573E-01  5.6419E+00
 12  2.0000E-01  2.7909E-01  4.9006E-01  5.2395E+00
 13  2.0000E-01  2.6685E-01  2.7258E-01  4.5328E+00
 14  2.0000E-01  2.2761E-01  2.4261E-01  4.6343E+00
 15  2.0000E-01  6.5154E-01  8.8550E-01  4.6525E+00
 16  2.0000E-01  2.6200E-01  5.0827E-01  4.8923E+00
 17  2.0000E-01  2.2930E-01  3.5051E-01  4.9501E+00
 18  2.0122E-01  1.0000E+00  8.2463E-01  5.3658E+00
  
:NORMS:  Nuclear, Spectral, Froebius, Shanno-Pua   0.1267E+01  0.1016E+01  0.1189E+01  0.8020E+00
:INFO :  Number of Memory Steps    8 Skipping    9
:INFO :  SLambda=    1.3414468  Max    1.3414468

Eigenvalues, unscaled except for SY+YY
   #     SY Real        SY Imag          SS             YY         SY+YY Real      SY+YY Imag
   1   2.312555E+00   0.000000E+00   2.454250E+00   2.534119E+00   5.546694E+00   0.000000E+00
   2   1.833140E+00   0.000000E+00   1.702896E+00   2.029381E+00   4.489542E+00   0.000000E+00
   3   9.243473E-01   0.000000E+00   6.574307E-01   1.650362E+00   2.922147E+00   0.000000E+00
   4   6.092636E-01   0.000000E+00   4.154522E-01   1.021860E+00   1.873348E+00   0.000000E+00
   5   3.623720E-01   0.000000E+00   3.061744E-01   4.509810E-01   9.366338E-01   0.000000E+00
   6   7.824049E-04   0.000000E+00   3.646376E-04   2.354120E-03   3.563225E-03   0.000000E+00
   7   7.039543E-02   0.000000E+00   3.245285E-02   1.303578E-01   2.350132E-01   0.000000E+00
   8   1.379673E-01   0.000000E+00   9.187241E-02   1.805841E-01   3.782043E-01   0.000000E+00
 
:INFO :  Singular value   5.586E+00 Weight  1.0000E+00 Projections  -3.476E-06 -3.849E-08
:INFO :  Singular value   4.488E+00 Weight  1.0000E+00 Projections   2.242E-06 -4.047E-08
:INFO :  Singular value   2.918E+00 Weight  1.0000E+00 Projections  -1.897E-06  2.927E-08
:INFO :  Singular value   1.868E+00 Weight  1.0000E+00 Projections   8.836E-07 -3.212E-08
:INFO :  Singular value   9.350E-01 Weight  1.0000E+00 Projections   7.160E-06 -7.712E-07
:INFO :  Singular value   3.780E-01 Weight  1.0000E+00 Projections  -1.210E-05  5.802E-07
:INFO :  Singular value   2.350E-01 Weight  1.0000E+00 Projections   8.988E-06 -1.613E-06
:INFO :  Singular value   3.563E-03 Weight  1.0000E+00 Projections  -3.505E-06 -1.757E-05
 
:DIRM :  MEMORY 8/8 RESCALE  12.63 RED 0.653 PRED 0.825 NEXT 0.854
:INFO :  Blimit    5.114E+00  1.320E+00  1.000E+00  5.281E+00
:DIRP :  |MSR1|= 6.665E-07 |PRATT|= 1.198E-06 ANGLE=  34.7 DEGREES
:DIRQ :  |MSR1|= 0.000E+00 |PRATT|= 0.000E+00 ANGLE=   0.0 DEGREES
:DIR  :  |MSR1|= 9.905E-07 |PRATT|= 1.645E-06 ANGLE=  30.6 DEGREES
:MIX  :   MSE1   REGULARIZATION: 2.53E-06  GREED: 0.200  Newton 1.00  0.60                
     
       CHARGES OF MIXED CHARGE DENSITY
:CTO   : INTERSTITIAL CHARGE =     6.803331
:CTO001: CHARGE SPHERE  1    =    27.372013
:CTO002: CHARGE SPHERE  2    =    10.645209
:CTO003: CHARGE SPHERE  3    =     6.589723

:NEC03: NUCLEAR AND ELECTRONIC CHARGE     58.00000    58.00000

PW CHANGE     H    K    L       Current     Change     Residue
:PTO001:      0    0    0  6.52688385E-02  6.564E-10 -3.933E-11
:PTO002:     -1   -1   -1 -2.24088939E-02 -7.171E-10 -3.184E-10
:PTO003:     -2   -2   -2 -8.28431971E-03 -1.244E-10  6.187E-10
:PTO004:     -1    0    0  1.15217341E-01  1.502E-09 -2.172E-09
:PTO005:     -1   -1    0  5.61444740E-02  1.760E-09  2.840E-09
:PTO006:     -2   -1   -1 -7.51696179E-02 -2.961E-10  1.822E-09
:PTO007:     -2   -2   -1 -7.99952765E-02 -1.359E-09 -1.774E-09
:PTO008:     -3   -3   -3  3.17974750E-02  4.583E-10 -2.870E-10
:PTO009:     -3   -2   -2  1.62729862E-02 -1.218E-09 -3.655E-09
:PTO010:     -3   -3   -2  5.01544274E-02  2.074E-10 -1.206E-09
:PTO011:     -1    0    1  3.87864359E-02 -1.806E-10  2.830E-11
:PTO012:     -4   -4   -4 -5.42872384E-03  6.707E-10  7.705E-10

:ENE  : ********** TOTAL ENERGY IN Ry =        -4097.04491094

       TOTAL FORCE IN mRy/a.u. = |F|     Fx             Fy             Fz     with/without FOR in case.in2
:FOR001:   1.ATOM          0.000          0.000          0.000          0.000 partial forces
:FOR002:   2.ATOM          0.000          0.000          0.000          0.000 partial forces
:FOR003:   3.ATOM          6.470          0.000          0.000         -6.470 partial forces
       TOTAL FORCE WITH RESPECT TO GLOBAL CARTESIAN COORDINATES:
:FCA001:   1.ATOM                         0.000          0.000          0.000 partial forces
:FCA002:   2.ATOM                         0.000          0.000          0.000 partial forces
:FCA003:   3.ATOM                         0.000          0.000         -6.470 partial forces
       TOTAL FORCE WITH RESPECT TO THE GLOBAL COORDINATE SYSTEM:
:FGL001:   1.ATOM                 0.000000000     0.000000000     0.000000000 partial forces
:FGL002:   2.ATOM                 0.000000000     0.000000000     0.000000000 partial forces
:FGL003:   3.ATOM                -6.470118712    -6.470118712    -6.470118712 partial forces
