    4    4    1    1
  0.9829158E+01  0.5862275E-09  0.5862275E-09  0.5862275E-09  0.5000000E-15
  1.000000000000000E-004
  CAR 
 unknown system                          
     34    116     36
 
  0.0000000E+00  0.0000000E+00  0.0000000E+00  0.1000000E-02
    1     -105.466692   1.000000
    2      -63.161834   1.000000
    3      -62.950709   1.000000
    4      -62.950709   1.000000
    5      -15.268223   1.000000
    6      -13.091522   1.000000
    7       -2.593805   1.000000
    8        1.889164   1.000000
    9        1.992675   1.000000
   10        1.992675   1.000000
   11        2.048708   1.000000
   12        3.193079   1.000000
   13        3.193079   1.000000
   14        4.029533   1.000000
   15        4.029533   1.000000
   16        4.815114   1.000000
   17        4.815114   1.000000
   18        7.773339   0.000000
   19       11.906445   0.000000
   20       13.128554   0.000000
   21       17.537741   0.000000
   22       19.665563   0.000000
   23       19.665563   0.000000
   24       20.965561   0.000000
   25       21.019664   0.000000
   26       21.019664   0.000000
   27       24.660182   0.000000
   28       25.950458   0.000000
   29       25.950458   0.000000
   30       26.954129   0.000000
   31       26.954129   0.000000
   32       27.213684   0.000000
   33       30.211821   0.000000
   34       31.043121   0.000000
   35       31.043967   0.000000
   36       31.867595   0.000000
 
  0.1000000E+00  0.1107563E-17  0.1107563E-17  0.6000000E-02
    1     -105.466498   1.000000
    2      -63.161236   1.000000
    3      -62.952674   1.000000
    4      -62.951225   1.000000
    5      -15.144931   1.000000
    6      -13.042341   1.000000
    7       -2.466443   1.000000
    8        1.179482   1.000000
    9        1.817185   1.000000
   10        1.885294   1.000000
   11        2.451418   1.000000
   12        2.941303   1.000000
   13        3.139624   1.000000
   14        3.991728   1.000000
   15        4.104358   1.000000
   16        4.758572   1.000000
   17        4.793836   1.000000
   18        7.974135   0.000000
   19       12.319586   0.000000
   20       13.432747   0.000000
   21       17.523181   0.000000
   22       18.902251   0.000000
   23       19.915436   0.000000
   24       20.145555   0.000000
   25       20.729247   0.000000
   26       21.289518   0.000000
   27       23.787329   0.000000
   28       24.774431   0.000000
   29       25.699871   0.000000
   30       27.586744   0.000000
   31       27.672618   0.000000
   32       28.486707   0.000000
   33       29.493391   0.000000
   34       30.978982   0.000000
   35       31.362970   0.000000
   36       33.063186   0.000000
 
  0.2000000E+00  0.1345033E-16  0.1345033E-16  0.6000000E-02
    1     -105.465931   1.000000
    2      -63.160336   1.000000
    3      -62.957616   1.000000
    4      -62.952320   1.000000
    5      -14.796502   1.000000
    6      -12.919825   1.000000
    7       -2.144535   1.000000
    8        0.050301   1.000000
    9        1.225540   1.000000
   10        1.623050   1.000000
   11        2.525220   1.000000
   12        2.940928   1.000000
   13        3.000461   1.000000
   14        3.945562   1.000000
   15        4.298099   1.000000
   16        4.614103   1.000000
   17        4.740181   1.000000
   18        8.338601   0.000000
   19       13.195986   0.000000
   20       14.173010   0.000000
   21       17.195074   0.000000
   22       17.703041   0.000000
   23       18.719914   0.000000
   24       19.588287   0.000000
   25       20.450358   0.000000
   26       21.686128   0.000000
   27       22.991559   0.000000
   28       23.907707   0.000000
   29       25.289001   0.000000
   30       27.264770   0.000000
   31       27.837741   0.000000
   32       29.515359   0.000000
   33       31.311713   0.000000
   34       32.000213   0.000000
   35       32.088360   0.000000
   36       34.174729   0.000000
 
  0.3000000E+00  0.2737240E-17  0.1661503E-16  0.6000000E-02
    1     -105.465277   1.000000
    2      -63.159538   1.000000
    3      -62.964261   1.000000
    4      -62.953897   1.000000
    5      -14.292992   1.000000
    6      -12.796767   1.000000
    7       -1.839592   1.000000
    8       -1.091597   1.000000
    9        0.489901   1.000000
   10        1.328624   1.000000
   11        2.340322   1.000000
   12        2.828179   1.000000
   13        3.185794   1.000000
   14        4.246929   1.000000
   15        4.456565   1.000000
   16        4.541279   1.000000
   17        4.677450   1.000000
   18        8.574503   0.000000
   19       13.621545   0.000000
   20       14.422240   0.000000
   21       16.423708   0.000000
   22       16.862188   0.000000
   23       17.859414   0.000000
   24       19.482635   0.000000
   25       20.640373   0.000000
   26       21.319367   0.000000
   27       22.976493   0.000000
   28       23.854343   0.000000
   29       25.022629   0.000000
   30       26.556952   0.000000
   31       28.188396   0.000000
   32       30.061786   0.000000
   33       31.409684   0.000000
   34       32.962715   0.000000
   35       34.156899   0.000000
   36       35.260171   0.000000
 
  0.4000000E+00  0.2690065E-16  0.2690065E-16  0.6000000E-02
    1     -105.464734   1.000000
    2      -63.158920   1.000000
    3      -62.969672   1.000000
    4      -62.955074   1.000000
    5      -13.771760   1.000000
    6      -12.768338   1.000000
    7       -2.003328   1.000000
    8       -1.765508   1.000000
    9        0.250832   1.000000
   10        1.109211   1.000000
   11        2.066525   1.000000
   12        2.688977   1.000000
   13        3.176110   1.000000
   14        4.340852   1.000000
   15        4.629295   1.000000
   16        4.745745   1.000000
   17        5.116506   1.000000
   18        8.523336   0.000000
   19       12.614926   0.000000
   20       13.750907   0.000000
   21       16.649194   0.000000
   22       17.136526   0.000000
   23       17.906499   0.000000
   24       19.888726   0.000000
   25       20.098813   0.000000
   26       21.299854   0.000000
   27       22.413318   0.000000
   28       22.973958   0.000000
   29       25.877084   0.000000
   30       27.105241   0.000000
   31       28.838120   0.000000
   32       30.730662   0.000000
   33       31.361871   0.000000
   34       33.117431   0.000000
   35       33.975635   0.000000
   36       35.308032   0.000000
 
  0.5000000E+00  0.3006535E-16  0.2309778E-17  0.3000000E-02
    1     -105.464518   1.000000
    2      -63.158629   1.000000
    3      -62.971801   1.000000
    4      -62.955544   1.000000
    5      -13.504041   1.000000
    6      -12.814511   1.000000
    7       -2.301108   1.000000
    8       -1.868837   1.000000
    9        0.296408   1.000000
   10        1.029123   1.000000
   11        1.918135   1.000000
   12        2.636006   1.000000
   13        3.143323   1.000000
   14        4.301421   1.000000
   15        4.611477   1.000000
   16        4.826150   1.000000
   17        5.712064   1.000000
   18        8.317968   0.000000
   19       11.892753   0.000000
   20       13.560764   0.000000
   21       16.810668   0.000000
   22       17.292890   0.000000
   23       18.211323   0.000000
   24       19.836191   0.000000
   25       20.248341   0.000000
   26       21.314821   0.000000
   27       21.576003   0.000000
   28       22.912911   0.000000
   29       25.704651   0.000000
   30       28.639369   0.000000
   31       28.898013   0.000000
   32       31.335949   0.000000
   33       31.419423   0.000000
   34       33.003577   0.000000
   35       33.056531   0.000000
   36       35.780532   0.000000
 
  0.1000000E+00  0.1000000E+00  0.2215126E-17  0.6000000E-02
    1     -105.466490   1.000000
    2      -63.161150   1.000000
    3      -62.952590   1.000000
    4      -62.951074   1.000000
    5      -15.141699   1.000000
    6      -13.048413   1.000000
    7       -2.439604   1.000000
    8        1.172090   1.000000
    9        1.779981   1.000000
   10        1.917026   1.000000
   11        2.417340   1.000000
   12        2.998793   1.000000
   13        3.067611   1.000000
   14        3.991339   1.000000
   15        4.104691   1.000000
   16        4.731555   1.000000
   17        4.839172   1.000000
   18        8.015700   0.000000
   19       12.292584   0.000000
   20       13.406410   0.000000
   21       17.548020   0.000000
   22       18.898359   0.000000
   23       19.918101   0.000000
   24       20.064308   0.000000
   25       20.886399   0.000000
   26       21.361268   0.000000
   27       24.112290   0.000000
   28       24.308646   0.000000
   29       25.487382   0.000000
   30       27.031419   0.000000
   31       28.184725   0.000000
   32       28.764313   0.000000
   33       29.402980   0.000000
   34       31.517891   0.000000
   35       31.769533   0.000000
   36       32.285393   0.000000
 
  0.2000000E+00  0.1000000E+00  0.1661503E-16  0.1200000E-01
    1     -105.466086   1.000000
    2      -63.160546   1.000000
    3      -62.955709   1.000000
    4      -62.952048   1.000000
    5      -14.902518   1.000000
    6      -12.967779   1.000000
    7       -2.190520   1.000000
    8        0.431356   1.000000
    9        1.222740   1.000000
   10        1.871807   1.000000
   11        2.475021   1.000000
   12        2.835872   1.000000
   13        3.011163   1.000000
   14        3.925298   1.000000
   15        4.255306   1.000000
   16        4.632067   1.000000
   17        4.807813   1.000000
   18        8.321100   0.000000
   19       12.917426   0.000000
   20       13.965006   0.000000
   21       17.383995   0.000000
   22       18.000744   0.000000
   23       19.138054   0.000000
   24       20.026191   0.000000
   25       20.383885   0.000000
   26       21.553478   0.000000
   27       22.574896   0.000000
   28       23.913875   0.000000
   29       26.073413   0.000000
   30       26.766894   0.000000
   31       28.246007   0.000000
   32       29.658240   0.000000
   33       31.074748   0.000000
   34       31.614464   0.000000
   35       32.047781   0.000000
   36       32.924919   0.000000
 
  0.3000000E+00  0.1000000E+00  0.1977973E-16  0.1200000E-01
    1     -105.465530   1.000000
    2      -63.159791   1.000000
    3      -62.961607   1.000000
    4      -62.954144   1.000000
    5      -14.471965   1.000000
    6      -12.847224   1.000000
    7       -1.856084   1.000000
    8       -0.547684   1.000000
    9        0.486670   1.000000
   10        1.521883   1.000000
   11        2.357110   1.000000
   12        2.624239   1.000000
   13        3.297479   1.000000
   14        3.902923   1.000000
   15        4.503766   1.000000
   16        4.548098   1.000000
   17        4.717262   1.000000
   18        8.594123   0.000000
   19       13.729794   0.000000
   20       14.889199   0.000000
   21       16.665141   0.000000
   22       16.816313   0.000000
   23       18.363450   0.000000
   24       18.697031   0.000000
   25       20.496143   0.000000
   26       21.199383   0.000000
   27       22.587062   0.000000
   28       24.207619   0.000000
   29       25.710183   0.000000
   30       26.901445   0.000000
   31       28.166558   0.000000
   32       29.954857   0.000000
   33       32.007713   0.000000
   34       32.267269   0.000000
   35       33.359241   0.000000
   36       34.810315   0.000000
 
  0.4000000E+00  0.1000000E+00  0.2309778E-17  0.1200000E-01
    1     -105.464919   1.000000
    2      -63.159088   1.000000
    3      -62.967181   1.000000
    4      -62.955851   1.000000
    5      -13.949023   1.000000
    6      -12.772329   1.000000
    7       -1.725254   1.000000
    8       -1.484957   1.000000
    9        0.168160   1.000000
   10        1.038680   1.000000
   11        2.159055   1.000000
   12        2.417323   1.000000
   13        3.400209   1.000000
   14        4.312407   1.000000
   15        4.410592   1.000000
   16        4.632387   1.000000
   17        4.991307   1.000000
   18        8.663226   0.000000
   19       13.689085   0.000000
   20       14.360430   0.000000
   21       16.548745   0.000000
   22       16.788498   0.000000
   23       17.744304   0.000000
   24       18.458762   0.000000
   25       20.078502   0.000000
   26       21.248408   0.000000
   27       22.804839   0.000000
   28       23.796850   0.000000
   29       26.117101   0.000000
   30       27.422909   0.000000
   31       27.499208   0.000000
   32       30.444263   0.000000
   33       32.414326   0.000000
   34       32.870617   0.000000
   35       34.528265   0.000000
   36       35.328545   0.000000
 
  0.5000000E+00  0.1000000E+00  0.3323006E-16  0.1200000E-01
    1     -105.464546   1.000000
    2      -63.158663   1.000000
    3      -62.970678   1.000000
    4      -62.956992   1.000000
    5      -13.521340   1.000000
    6      -12.802097   1.000000
    7       -2.117803   1.000000
    8       -1.764426   1.000000
    9        0.306977   1.000000
   10        0.637075   1.000000
   11        2.044130   1.000000
   12        2.273758   1.000000
   13        3.340835   1.000000
   14        4.334712   1.000000
   15        4.579620   1.000000
   16        4.658143   1.000000
   17        5.618406   1.000000
   18        8.598204   0.000000
   19       12.362706   0.000000
   20       14.075246   0.000000
   21       16.979194   0.000000
   22       17.246726   0.000000
   23       17.766062   0.000000
   24       18.303754   0.000000
   25       20.080787   0.000000
   26       21.081553   0.000000
   27       22.801425   0.000000
   28       23.059435   0.000000
   29       26.976986   0.000000
   30       27.478111   0.000000
   31       27.679860   0.000000
   32       31.080049   0.000000
   33       32.762618   0.000000
   34       33.196557   0.000000
   35       33.761127   0.000000
   36       35.434086   0.000000
 
 -0.4000000E+00  0.1000000E+00 -0.1808672E-16  0.1200000E-01
    1     -105.464551   1.000000
    2      -63.158650   1.000000
    3      -62.970706   1.000000
    4      -62.956970   1.000000
    5      -13.534595   1.000000
    6      -12.785483   1.000000
    7       -2.141340   1.000000
    8       -1.754205   1.000000
    9        0.225312   1.000000
   10        0.703048   1.000000
   11        2.065074   1.000000
   12        2.313076   1.000000
   13        3.336076   1.000000
   14        4.327850   1.000000
   15        4.581938   1.000000
   16        4.650090   1.000000
   17        5.539607   1.000000
   18        8.759162   0.000000
   19       12.260924   0.000000
   20       14.099701   0.000000
   21       16.790857   0.000000
   22       17.155403   0.000000
   23       17.854770   0.000000
   24       18.413233   0.000000
   25       20.347068   0.000000
   26       20.968238   0.000000
   27       22.547044   0.000000
   28       23.160595   0.000000
   29       26.953071   0.000000
   30       27.110992   0.000000
   31       28.118153   0.000000
   32       31.196515   0.000000
   33       32.656557   0.000000
   34       33.031580   0.000000
   35       34.143442   0.000000
   36       35.446575   0.000000
 
 -0.3000000E+00  0.1000000E+00 -0.2167889E-16  0.1200000E-01
    1     -105.464916   1.000000
    2      -63.158981   1.000000
    3      -62.967195   1.000000
    4      -62.955719   1.000000
    5      -13.967988   1.000000
    6      -12.744839   1.000000
    7       -1.832634   1.000000
    8       -1.427358   1.000000
    9        0.097931   1.000000
   10        1.087929   1.000000
   11        2.226234   1.000000
   12        2.500845   1.000000
   13        3.382518   1.000000
   14        4.294819   1.000000
   15        4.383126   1.000000
   16        4.631202   1.000000
   17        4.932817   1.000000
   18        8.808379   0.000000
   19       13.556344   0.000000
   20       14.391672   0.000000
   21       16.309970   0.000000
   22       16.809150   0.000000
   23       17.734005   0.000000
   24       18.596018   0.000000
   25       20.600710   0.000000
   26       21.082472   0.000000
   27       22.484127   0.000000
   28       23.552636   0.000000
   29       25.863217   0.000000
   30       27.462683   0.000000
   31       27.927500   0.000000
   32       30.732263   0.000000
   33       32.052551   0.000000
   34       33.173390   0.000000
   35       34.767282   0.000000
   36       35.691986   0.000000
 
 -0.2000000E+00  0.1000000E+00 -0.1811780E-17  0.1200000E-01
    1     -105.465506   1.000000
    2      -63.159669   1.000000
    3      -62.961460   1.000000
    4      -62.954033   1.000000
    5      -14.487050   1.000000
    6      -12.822106   1.000000
    7       -1.954935   1.000000
    8       -0.520022   1.000000
    9        0.455230   1.000000
   10        1.534224   1.000000
   11        2.497079   1.000000
   12        2.672511   1.000000
   13        3.263324   1.000000
   14        3.903198   1.000000
   15        4.496479   1.000000
   16        4.530695   1.000000
   17        4.705289   1.000000
   18        8.572918   0.000000
   19       13.963278   0.000000
   20       14.481175   0.000000
   21       16.785875   0.000000
   22       16.981045   0.000000
   23       17.993840   0.000000
   24       18.971099   0.000000
   25       20.629156   0.000000
   26       21.342379   0.000000
   27       22.333204   0.000000
   28       23.922262   0.000000
   29       25.328649   0.000000
   30       27.276904   0.000000
   31       28.040659   0.000000
   32       30.539935   0.000000
   33       31.656916   0.000000
   34       32.557755   0.000000
   35       33.581247   0.000000
   36       34.674026   0.000000
 
 -0.1000000E+00  0.1000000E+00  0.3001618E-17  0.6000000E-02
    1     -105.466092   1.000000
    2      -63.160509   1.000000
    3      -62.955729   1.000000
    4      -62.952170   1.000000
    5      -14.911985   1.000000
    6      -12.950549   1.000000
    7       -2.264249   1.000000
    8        0.457529   1.000000
    9        1.214530   1.000000
   10        1.850742   1.000000
   11        2.590867   1.000000
   12        2.919460   1.000000
   13        2.960679   1.000000
   14        3.926808   1.000000
   15        4.254082   1.000000
   16        4.639338   1.000000
   17        4.771379   1.000000
   18        8.232084   0.000000
   19       13.048352   0.000000
   20       13.901685   0.000000
   21       17.370251   0.000000
   22       18.019973   0.000000
   23       19.139365   0.000000
   24       19.980826   0.000000
   25       20.294416   0.000000
   26       21.584403   0.000000
   27       22.600073   0.000000
   28       23.907515   0.000000
   29       26.432477   0.000000
   30       26.489466   0.000000
   31       28.056864   0.000000
   32       29.559544   0.000000
   33       31.290575   0.000000
   34       31.462535   0.000000
   35       32.310818   0.000000
   36       32.742338   0.000000
 
  0.2000000E+00  0.2000000E+00  0.3512921E-16  0.6000000E-02
    1     -105.465904   1.000000
    2      -63.160117   1.000000
    3      -62.957532   1.000000
    4      -62.952197   1.000000
    5      -14.783737   1.000000
    6      -12.942493   1.000000
    7       -2.046083   1.000000
    8        0.059339   1.000000
    9        1.125560   1.000000
   10        1.724279   1.000000
   11        2.406744   1.000000
   12        2.779267   1.000000
   13        3.048886   1.000000
   14        3.957395   1.000000
   15        4.295954   1.000000
   16        4.532774   1.000000
   17        4.881634   1.000000
   18        8.499705   0.000000
   19       13.057933   0.000000
   20       13.989059   0.000000
   21       17.366387   0.000000
   22       17.776819   0.000000
   23       18.419978   0.000000
   24       20.406570   0.000000
   25       20.646574   0.000000
   26       22.209367   0.000000
   27       22.628326   0.000000
   28       22.753834   0.000000
   29       24.516036   0.000000
   30       26.767749   0.000000
   31       29.143399   0.000000
   32       30.837761   0.000000
   33       31.356436   0.000000
   34       32.221623   0.000000
   35       32.671590   0.000000
   36       33.508298   0.000000
 
  0.3000000E+00  0.2000000E+00  0.1053834E-16  0.1200000E-01
    1     -105.465486   1.000000
    2      -63.159529   1.000000
    3      -62.961450   1.000000
    4      -62.953838   1.000000
    5      -14.461920   1.000000
    6      -12.863653   1.000000
    7       -1.797734   1.000000
    8       -0.495482   1.000000
    9        0.404031   1.000000
   10        1.631848   1.000000
   11        2.265853   1.000000
   12        2.470955   1.000000
   13        3.300970   1.000000
   14        3.923489   1.000000
   15        4.422976   1.000000
   16        4.549114   1.000000
   17        4.840964   1.000000
   18        8.734510   0.000000
   19       13.624435   0.000000
   20       14.558978   0.000000
   21       17.044160   0.000000
   22       17.130079   0.000000
   23       17.626234   0.000000
   24       19.519459   0.000000
   25       20.155737   0.000000
   26       21.710565   0.000000
   27       22.093176   0.000000
   28       23.763115   0.000000
   29       24.866553   0.000000
   30       27.770225   0.000000
   31       28.599376   0.000000
   32       30.958821   0.000000
   33       31.514564   0.000000
   34       32.777009   0.000000
   35       33.743864   0.000000
   36       34.016665   0.000000
 
  0.4000000E+00  0.2000000E+00  0.1259540E-16  0.1200000E-01
    1     -105.464995   1.000000
    2      -63.159204   1.000000
    3      -62.965325   1.000000
    4      -62.956883   1.000000
    5      -14.005310   1.000000
    6      -12.790159   1.000000
    7       -1.663046   1.000000
    8       -0.971551   1.000000
    9       -0.237995   1.000000
   10        1.289686   1.000000
   11        1.860221   1.000000
   12        2.225594   1.000000
   13        3.766025   1.000000
   14        3.808471   1.000000
   15        4.353889   1.000000
   16        4.727348   1.000000
   17        5.015363   1.000000
   18        8.897769   0.000000
   19       14.475965   0.000000
   20       15.437800   0.000000
   21       15.672823   0.000000
   22       16.610568   0.000000
   23       17.166607   0.000000
   24       18.272346   0.000000
   25       19.436934   0.000000
   26       21.628423   0.000000
   27       22.314180   0.000000
   28       24.290657   0.000000
   29       25.737046   0.000000
   30       27.454324   0.000000
   31       29.912084   0.000000
   32       30.008235   0.000000
   33       31.957713   0.000000
   34       33.597696   0.000000
   35       33.881963   0.000000
   36       35.127809   0.000000
 
  0.5000000E+00  0.2000000E+00 -0.7057652E-16  0.1200000E-01
    1     -105.464568   1.000000
    2      -63.158660   1.000000
    3      -62.968384   1.000000
    4      -62.959536   1.000000
    5      -13.539501   1.000000
    6      -12.794167   1.000000
    7       -1.717676   1.000000
    8       -1.514785   1.000000
    9       -0.264769   1.000000
   10        0.708900   1.000000
   11        1.645329   1.000000
   12        2.072473   1.000000
   13        3.687998   1.000000
   14        4.207902   1.000000
   15        4.349137   1.000000
   16        4.605237   1.000000
   17        5.539482   1.000000
   18        9.114127   0.000000
   19       13.453879   0.000000
   20       14.995093   0.000000
   21       16.106904   0.000000
   22       16.975155   0.000000
   23       17.181863   0.000000
   24       17.805527   0.000000
   25       19.274452   0.000000
   26       21.244052   0.000000
   27       22.665550   0.000000
   28       24.430001   0.000000
   29       25.792873   0.000000
   30       26.917949   0.000000
   31       29.441992   0.000000
   32       31.049023   0.000000
   33       32.814060   0.000000
   34       33.721919   0.000000
   35       34.352840   0.000000
   36       35.966512   0.000000
 
 -0.4000000E+00  0.2000000E+00 -0.1756461E-16  0.1200000E-01
    1     -105.464407   1.000000
    2      -63.158468   1.000000
    3      -62.969367   1.000000
    4      -62.960620   1.000000
    5      -13.314336   1.000000
    6      -12.830464   1.000000
    7       -1.925963   1.000000
    8       -1.566007   1.000000
    9       -0.286098   1.000000
   10        0.489332   1.000000
   11        1.530344   1.000000
   12        2.133120   1.000000
   13        3.640173   1.000000
   14        4.346816   1.000000
   15        4.404038   1.000000
   16        4.519167   1.000000
   17        5.715275   1.000000
   18        9.502288   0.000000
   19       12.412583   0.000000
   20       15.131189   0.000000
   21       15.690708   0.000000
   22       17.232762   0.000000
   23       17.452005   0.000000
   24       18.083780   0.000000
   25       19.254494   0.000000
   26       21.111400   0.000000
   27       23.030093   0.000000
   28       24.189702   0.000000
   29       25.399097   0.000000
   30       26.562071   0.000000
   31       29.694084   0.000000
   32       31.353509   0.000000
   33       33.047411   0.000000
   34       33.645893   0.000000
   35       34.056327   0.000000
   36       35.839588   0.000000
 
 -0.3000000E+00  0.2000000E+00 -0.3400890E-18  0.1200000E-01
    1     -105.464569   1.000000
    2      -63.158599   1.000000
    3      -62.968334   1.000000
    4      -62.959472   1.000000
    5      -13.579290   1.000000
    6      -12.743239   1.000000
    7       -1.859535   1.000000
    8       -1.376647   1.000000
    9       -0.467438   1.000000
   10        0.873421   1.000000
   11        1.507929   1.000000
   12        2.368327   1.000000
   13        3.676597   1.000000
   14        4.191359   1.000000
   15        4.388297   1.000000
   16        4.521809   1.000000
   17        5.397298   1.000000
   18        9.380526   0.000000
   19       13.342475   0.000000
   20       15.171284   0.000000
   21       15.548518   0.000000
   22       16.550716   0.000000
   23       17.470408   0.000000
   24       18.097001   0.000000
   25       19.816341   0.000000
   26       21.094576   0.000000
   27       22.828173   0.000000
   28       23.768775   0.000000
   29       25.727145   0.000000
   30       26.501316   0.000000
   31       30.197815   0.000000
   32       31.583694   0.000000
   33       32.455420   0.000000
   34       33.385581   0.000000
   35       34.967101   0.000000
   36       35.300647   0.000000
 
 -0.2000000E+00  0.2000000E+00  0.1594632E-18  0.6000000E-02
    1     -105.464990   1.000000
    2      -63.159198   1.000000
    3      -62.965296   1.000000
    4      -62.956746   1.000000
    5      -14.041329   1.000000
    6      -12.736953   1.000000
    7       -1.803800   1.000000
    8       -0.959152   1.000000
    9       -0.313292   1.000000
   10        1.298385   1.000000
   11        1.900595   1.000000
   12        2.566443   1.000000
   13        3.710760   1.000000
   14        3.798443   1.000000
   15        4.415517   1.000000
   16        4.615662   1.000000
   17        4.934425   1.000000
   18        8.952736   0.000000
   19       14.740384   0.000000
   20       15.084477   0.000000
   21       15.622038   0.000000
   22       16.235248   0.000000
   23       17.498185   0.000000
   24       18.129990   0.000000
   25       20.656326   0.000000
   26       20.896399   0.000000
   27       22.296171   0.000000
   28       23.704459   0.000000
   29       26.054926   0.000000
   30       26.718942   0.000000
   31       29.814243   0.000000
   32       31.034011   0.000000
   33       31.482978   0.000000
   34       33.840451   0.000000
   35       34.303304   0.000000
   36       34.774538   0.000000
 
  0.3000000E+00  0.3000000E+00  0.3323006E-16  0.6000000E-02
    1     -105.465286   1.000000
    2      -63.159524   1.000000
    3      -62.964369   1.000000
    4      -62.954061   1.000000
    5      -14.262957   1.000000
    6      -12.844169   1.000000
    7       -1.742568   1.000000
    8       -0.941308   1.000000
    9        0.374523   1.000000
   10        1.497771   1.000000
   11        2.111143   1.000000
   12        2.468003   1.000000
   13        3.219825   1.000000
   14        4.260596   1.000000
   15        4.376152   1.000000
   16        4.537954   1.000000
   17        4.909306   1.000000
   18        8.868766   0.000000
   19       13.439600   0.000000
   20       14.162359   0.000000
   21       16.511136   0.000000
   22       17.230569   0.000000
   23       17.601600   0.000000
   24       19.742169   0.000000
   25       20.177613   0.000000
   26       21.802472   0.000000
   27       22.737030   0.000000
   28       23.680832   0.000000
   29       24.213588   0.000000
   30       26.811624   0.000000
   31       30.208743   0.000000
   32       30.738519   0.000000
   33       31.525588   0.000000
   34       32.662900   0.000000
   35       33.800240   0.000000
   36       35.653705   0.000000
 
  0.4000000E+00  0.3000000E+00  0.5174424E-16  0.1200000E-01
    1     -105.464913   1.000000
    2      -63.158998   1.000000
    3      -62.967190   1.000000
    4      -62.955728   1.000000
    5      -13.917705   1.000000
    6      -12.817054   1.000000
    7       -1.853147   1.000000
    8       -1.107440   1.000000
    9        0.022761   1.000000
   10        1.324978   1.000000
   11        1.822232   1.000000
   12        2.184264   1.000000
   13        3.357244   1.000000
   14        4.212420   1.000000
   15        4.370427   1.000000
   16        4.859895   1.000000
   17        5.024700   1.000000
   18        8.980904   0.000000
   19       13.621684   0.000000
   20       14.569309   0.000000
   21       15.824299   0.000000
   22       16.908029   0.000000
   23       17.538720   0.000000
   24       19.037746   0.000000
   25       19.099984   0.000000
   26       21.749610   0.000000
   27       22.820033   0.000000
   28       24.286729   0.000000
   29       25.324729   0.000000