       N       E                     dE             d eps       ncg     rms          rms(c)
DAV:   1     0.414223490002E+03    0.41422E+03   -0.16694E+04 13872   0.308E+03
DAV:   2     0.243182915099E+01   -0.41179E+03   -0.37461E+03 13068   0.838E+02
DAV:   3    -0.304094407248E+02   -0.32841E+02   -0.32460E+02 13832   0.223E+02
DAV:   4    -0.315828626686E+02   -0.11734E+01   -0.11727E+01 13952   0.310E+01
DAV:   5    -0.316300580194E+02   -0.47195E-01   -0.47188E-01 13084   0.582E+00    0.142E+01
DAV:   6    -0.296696234605E+02    0.19604E+01   -0.14625E+01 12480   0.238E+02    0.113E+01
DAV:   7    -0.274203670576E+02    0.22493E+01   -0.80440E+00 11640   0.272E+02    0.273E+00
DAV:   8    -0.274211192969E+02   -0.75224E-03   -0.50440E-01 15408   0.139E+01    0.172E+00
DAV:   9    -0.274135621695E+02    0.75571E-02   -0.41141E-02 14024   0.636E+00    0.368E-01
DAV:  10    -0.274116188236E+02    0.19433E-02   -0.12682E-02 13784   0.474E+00    0.177E-01
DAV:  11    -0.274112931314E+02    0.32569E-03   -0.21665E-03 11872   0.245E+00    0.527E-02
DAV:  12    -0.274112814619E+02    0.11669E-04   -0.11465E-04 16240   0.724E-01    0.150E-02
DAV:  13    -0.274112803069E+02    0.11550E-05   -0.14429E-05 13688   0.893E-02    0.486E-03
DAV:  14    -0.274112801622E+02    0.14473E-06   -0.17354E-06 14332   0.865E-02    0.169E-03
DAV:  15    -0.274112801673E+02   -0.50632E-08   -0.10655E-07  7408   0.127E-02
   1 F= -.27411280E+02 E0= -.27411280E+02  d E =-.297570E-11
 Linear response reoptimize wavefunctions
DAV:   1    -0.274112801656E+02    0.17012E-08   -0.90398E-08 15752   0.516E-03
DAV:   2    -0.274112801657E+02   -0.17735E-09   -0.15541E-09  6352   0.279E-04
DAV:   3    -0.274112801658E+02   -0.18190E-10   -0.22456E-10  5644   0.240E-04
 Linear response G [H, r] |phi>, progress :
  Direction:   1
       N       E                     dE             d eps       ncg     rms
RMM:   1    -0.290526535541E+03   -0.29053E+03   -0.42214E+07  8630   0.333E+05
RMM:   2    -0.291751223777E+03   -0.12247E+01   -0.19974E+02 18267   0.362E+02
RMM:   3    -0.300227765412E+03   -0.84765E+01   -0.28745E+01 20448   0.121E+02
RMM:   4    -0.301139625139E+03   -0.91186E+00   -0.75286E+00 19847   0.591E+01
RMM:   5    -0.301252962404E+03   -0.11334E+00   -0.18487E+00 19441   0.323E+01
RMM:   6    -0.301284253628E+03   -0.31291E-01   -0.62850E-01 19688   0.180E+01
RMM:   7    -0.301292147893E+03   -0.78943E-02   -0.23952E-01 19626   0.110E+01
RMM:   8    -0.301294734795E+03   -0.25869E-02   -0.11050E-01 19859   0.725E+00
RMM:   9    -0.301295775475E+03   -0.10407E-02   -0.54317E-02 19700   0.490E+00
RMM:  10    -0.301296290543E+03   -0.51507E-03   -0.32400E-02 19837   0.349E+00
RMM:  11    -0.301296461202E+03   -0.17066E-03   -0.17247E-02 19702   0.249E+00
RMM:  12    -0.301296614079E+03   -0.15288E-03   -0.13158E-02 19682   0.189E+00
RMM:  13    -0.301296675595E+03   -0.61516E-04   -0.81199E-03 19541   0.139E+00
RMM:  14    -0.301296722288E+03   -0.46693E-04   -0.70956E-03 19480   0.113E+00
RMM:  15    -0.301296756509E+03   -0.34221E-04   -0.50451E-03 19241   0.901E-01
RMM:  16    -0.301296784211E+03   -0.27702E-04   -0.49178E-03 19163   0.761E-01
RMM:  17    -0.301296799503E+03   -0.15292E-04   -0.36070E-03 19070   0.641E-01
RMM:  18    -0.301296810829E+03   -0.11326E-04   -0.37097E-03 19075   0.560E-01
RMM:  19    -0.301296829360E+03   -0.18531E-04   -0.27308E-03 19071   0.472E-01
RMM:  20    -0.301296836289E+03   -0.69288E-05   -0.30573E-03 19133   0.435E-01
RMM:  21    -0.301296842238E+03   -0.59495E-05   -0.21568E-03 19102   0.367E-01
RMM:  22    -0.301296854553E+03   -0.12315E-04   -0.25376E-03 19081   0.348E-01
RMM:  23    -0.301296863033E+03   -0.84801E-05   -0.18380E-03 19023   0.287E-01
RMM:  24    -0.301296872560E+03   -0.95272E-05   -0.20516E-03 19047   0.274E-01
RMM:  25    -0.301296872761E+03   -0.20050E-06   -0.15507E-03 19039   0.230E-01
RMM:  26    -0.301296872610E+03    0.15078E-06   -0.14431E-03 19074   0.204E-01
RMM:  27    -0.301296871723E+03    0.88684E-06   -0.12889E-03 18960   0.176E-01
RMM:  28    -0.301296887989E+03   -0.16266E-04   -0.11592E-03 19091   0.148E-01
RMM:  29    -0.301296876022E+03    0.11968E-04   -0.12519E-03 19010   0.141E-01
RMM:  30    -0.301296879002E+03   -0.29803E-05   -0.11166E-03 19051   0.131E-01
RMM:  31    -0.301296873425E+03    0.55773E-05   -0.13206E-03 19017   0.130E-01
 Linear response G [H, r] |phi>, progress :
  Direction:   2
       N       E                     dE             d eps       ncg     rms
RMM:   1    -0.291612205802E+03   -0.29161E+03   -0.42162E+07  8621   0.332E+05
RMM:   2    -0.289336559990E+03    0.22756E+01   -0.18498E+02 18230   0.358E+02
RMM:   3    -0.299009394014E+03   -0.96728E+01   -0.28381E+01 20534   0.113E+02
RMM:   4    -0.299926459850E+03   -0.91707E+00   -0.76324E+00 19891   0.564E+01
RMM:   5    -0.300016647659E+03   -0.90188E-01   -0.18052E+00 19564   0.305E+01
RMM:   6    -0.300039813557E+03   -0.23166E-01   -0.61827E-01 19743   0.171E+01
RMM:   7    -0.300046293748E+03   -0.64802E-02   -0.22886E-01 19662   0.106E+01
RMM:   8    -0.300049933652E+03   -0.36399E-02   -0.12403E-01 19810   0.722E+00
RMM:   9    -0.300051048097E+03   -0.11144E-02   -0.59265E-02 19766   0.492E+00
RMM:  10    -0.300051600692E+03   -0.55260E-03   -0.42246E-02 19760   0.377E+00
RMM:  11    -0.300051913302E+03   -0.31261E-03   -0.23406E-02 19570   0.273E+00
RMM:  12    -0.300052106800E+03   -0.19350E-03   -0.20273E-02 19573   0.226E+00
RMM:  13    -0.300052170583E+03   -0.63783E-04   -0.11935E-02 19400   0.170E+00
RMM:  14    -0.300052256259E+03   -0.85676E-04   -0.12219E-02 19389   0.149E+00
RMM:  15    -0.300052320485E+03   -0.64226E-04   -0.83898E-03 19118   0.119E+00
RMM:  16    -0.300052409561E+03   -0.89075E-04   -0.79029E-03 19090   0.101E+00
RMM:  17    -0.300052416032E+03   -0.64711E-05   -0.48664E-03 19022   0.808E-01
RMM:  18    -0.300052461834E+03   -0.45802E-04   -0.48206E-03 19017   0.726E-01
RMM:  19    -0.300052477715E+03   -0.15882E-04   -0.32112E-03 18981   0.603E-01
RMM:  20    -0.300052477971E+03   -0.25553E-06   -0.22752E-03 18961   0.519E-01
RMM:  21    -0.300052505447E+03   -0.27477E-04   -0.21878E-03 18925   0.451E-01
RMM:  22    -0.300052501726E+03    0.37211E-05   -0.20383E-03 18920   0.423E-01
RMM:  23    -0.300052497455E+03    0.42710E-05   -0.18261E-03 18900   0.385E-01
RMM:  24    -0.300052503389E+03   -0.59340E-05   -0.17923E-03 18835   0.372E-01
RMM:  25    -0.300052515310E+03   -0.11921E-04   -0.17977E-03 18914   0.342E-01
RMM:  26    -0.300052514322E+03    0.98793E-06   -0.16397E-03 18883   0.330E-01
RMM:  27    -0.300052525496E+03   -0.11174E-04   -0.16978E-03 18885   0.305E-01
RMM:  28    -0.300052518380E+03    0.71151E-05   -0.13658E-03 18846   0.285E-01
RMM:  29    -0.300052509691E+03    0.86898E-05   -0.13321E-03 18906   0.265E-01
RMM:  30    -0.300052508572E+03    0.11183E-05   -0.10524E-03 18837   0.241E-01
RMM:  31    -0.300052538933E+03   -0.30361E-04   -0.14693E-03 18916   0.234E-01
RMM:  32    -0.300052516135E+03    0.22798E-04   -0.10013E-03 18771   0.216E-01
RMM:  33    -0.300052540661E+03   -0.24526E-04   -0.13165E-03 18897   0.200E-01
RMM:  34    -0.300052522216E+03    0.18446E-04   -0.93978E-04 18800   0.189E-01
RMM:  35    -0.300052540794E+03   -0.18579E-04   -0.12213E-03 18979   0.184E-01
 Linear response G [H, r] |phi>, progress :
  Direction:   3
       N       E                     dE             d eps       ncg     rms
RMM:   1    -0.292963601228E+03   -0.29296E+03   -0.42165E+07  8641   0.330E+05
RMM:   2    -0.292772636774E+03    0.19096E+00   -0.20405E+02 18349   0.374E+02
RMM:   3    -0.298439758145E+03   -0.56671E+01   -0.25255E+01 20304   0.116E+02
RMM:   4    -0.299194200384E+03   -0.75444E+00   -0.53902E+00 19794   0.557E+01
RMM:   5    -0.299329364434E+03   -0.13516E+00   -0.14102E+00 19729   0.307E+01
RMM:   6    -0.299359365106E+03   -0.30001E-01   -0.48592E-01 19881   0.175E+01
RMM:   7    -0.299367856456E+03   -0.84914E-02   -0.19126E-01 19943   0.107E+01
RMM:   8    -0.299370556913E+03   -0.27005E-02   -0.98342E-02 20061   0.734E+00
RMM:   9    -0.299372142223E+03   -0.15853E-02   -0.52694E-02 19955   0.503E+00
RMM:  10    -0.299372629209E+03   -0.48699E-03   -0.30078E-02 20059   0.359E+00
RMM:  11    -0.299372962327E+03   -0.33312E-03   -0.21102E-02 19914   0.272E+00
RMM:  12    -0.299373112946E+03   -0.15062E-03   -0.15322E-02 19871   0.215E+00
RMM:  13    -0.299373207576E+03   -0.94630E-04   -0.12410E-02 19703   0.172E+00
RMM:  14    -0.299373272741E+03   -0.65164E-04   -0.91436E-03 19715   0.143E+00
RMM:  15    -0.299373319851E+03   -0.47111E-04   -0.78834E-03 19557   0.119E+00
RMM:  16    -0.299373346329E+03   -0.26478E-04   -0.62718E-03 19598   0.102E+00
RMM:  17    -0.299373357540E+03   -0.11211E-04   -0.49284E-03 19378   0.859E-01
RMM:  18    -0.299373390879E+03   -0.33339E-04   -0.48056E-03 19420   0.765E-01
RMM:  19    -0.299373388037E+03    0.28425E-05   -0.40229E-03 19253   0.667E-01
RMM:  20    -0.299373397790E+03   -0.97533E-05   -0.38877E-03 19294   0.586E-01
RMM:  21    -0.299373410840E+03   -0.13050E-04   -0.36347E-03 19170   0.528E-01
RMM:  22    -0.299373401032E+03    0.98081E-05   -0.37648E-03 19233   0.466E-01
RMM:  23    -0.299373385200E+03    0.15832E-04   -0.35011E-03 19147   0.431E-01
RMM:  24    -0.299373337303E+03    0.47897E-04   -0.38300E-03 19190   0.404E-01
RMM:  25    -0.299373366004E+03   -0.28701E-04   -0.39837E-03 19084   0.381E-01
RMM:  26    -0.299373334018E+03    0.31986E-04   -0.48892E-03 19163   0.371E-01
 Linear response to external field (no local field effect), progress :
  Direction:   1
       N       E                     dE             d eps       ncg     rms          rms(c)
RMM:   1    -0.147152418558E+00   -0.14715E+00   -0.21366E+02  8600   0.899E+02
RMM:   2    -0.516164460207E+00   -0.36901E+00    0.54274E-01 15170   0.894E+00
RMM:   3    -0.572613246966E+00   -0.56449E-01    0.78396E-02 17720   0.372E+00
RMM:   4    -0.581156336309E+00   -0.85431E-02    0.14807E-02 18676   0.167E+00
RMM:   5    -0.582881032137E+00   -0.17247E-02    0.28956E-03 18894   0.846E-01
RMM:   6    -0.583262583798E+00   -0.38155E-03    0.69486E-04 19371   0.442E-01
RMM:   7    -0.583352193287E+00   -0.89609E-04    0.21772E-04 19478   0.258E-01
RMM:   8    -0.583380421791E+00   -0.28229E-04    0.52323E-05 19528   0.160E-01
RMM:   9    -0.583387562890E+00   -0.71411E-05    0.20224E-05 19545   0.105E-01
RMM:  10    -0.583390499339E+00   -0.29364E-05    0.87947E-06 19494   0.695E-02
RMM:  11    -0.583392026214E+00   -0.15269E-05    0.23983E-06 19437   0.459E-02
RMM:  12    -0.583392513816E+00   -0.48760E-06    0.22135E-06 19173   0.312E-02
RMM:  13    -0.583392832793E+00   -0.31898E-06    0.16067E-06 18736   0.209E-02
RMM:  14    -0.583393096392E+00   -0.26360E-06   -0.15542E-07 18236   0.146E-02
RMM:  15    -0.583393128879E+00   -0.32487E-07   -0.22106E-07 17932   0.105E-02
 Linear response to external field (no local field effect), progress :
  Direction:   2
       N       E                     dE             d eps       ncg     rms          rms(c)
RMM:   1    -0.153921332732E+00   -0.15392E+00   -0.23903E+02  8599   0.925E+02
RMM:   2    -0.562853505084E+00   -0.40893E+00    0.61744E-01 15263   0.932E+00
RMM:   3    -0.625958947091E+00   -0.63105E-01    0.95530E-02 17632   0.384E+00
RMM:   4    -0.635748156632E+00   -0.97892E-02    0.20225E-02 18674   0.179E+00
RMM:   5    -0.637868684209E+00   -0.21205E-02    0.48575E-03 18852   0.914E-01
RMM:   6    -0.638413022310E+00   -0.54434E-03    0.11814E-03 19212   0.482E-01
RMM:   7    -0.638554227119E+00   -0.14120E-03    0.33329E-04 19333   0.279E-01
RMM:   8    -0.638595543966E+00   -0.41317E-04    0.68566E-05 19401   0.171E-01
RMM:   9    -0.638605675878E+00   -0.10132E-04    0.25922E-05 19407   0.109E-01
RMM:  10    -0.638610434995E+00   -0.47591E-05   -0.14615E-06 19513   0.710E-02
RMM:  11    -0.638611285930E+00   -0.85093E-06   -0.19060E-06 19366   0.476E-02
RMM:  12    -0.638611382377E+00   -0.96448E-07    0.13497E-07 19081   0.328E-02
 Linear response to external field (no local field effect), progress :
  Direction:   3
       N       E                     dE             d eps       ncg     rms          rms(c)
RMM:   1    -0.131185031878E+00   -0.13119E+00   -0.31881E+02  8724   0.106E+03
RMM:   2    -0.359777456534E+00   -0.22859E+00    0.29225E-01 14675   0.110E+01
RMM:   3    -0.396272918328E+00   -0.36495E-01    0.38903E-02 17507   0.403E+00
RMM:   4    -0.401748329554E+00   -0.54754E-02    0.91660E-03 18218   0.189E+00
RMM:   5    -0.403019540918E+00   -0.12712E-02    0.19891E-03 18377   0.953E-01
RMM:   6    -0.403332381430E+00   -0.31284E-03    0.41202E-04 18611   0.521E-01
RMM:   7    -0.403414079126E+00   -0.81698E-04    0.37172E-05 18876   0.290E-01
RMM:   8    -0.403428273251E+00   -0.14194E-04    0.15943E-05 19012   0.173E-01
RMM:   9    -0.403434219875E+00   -0.59466E-05   -0.11595E-06 19039   0.107E-01
RMM:  10    -0.403435433266E+00   -0.12134E-05   -0.13622E-06 19115   0.705E-02
RMM:  11    -0.403435862699E+00   -0.42943E-06   -0.96812E-07 19007   0.455E-02
RMM:  12    -0.403436014182E+00   -0.15148E-06   -0.72440E-07 18618   0.318E-02
RMM:  13    -0.403436039911E+00   -0.25730E-07   -0.34183E-07 18270   0.218E-02
 Linear response to external field, progress :
  Direction:   1
       N       E                     dE             d eps       ncg     rms          rms(c)
RMM:   1    -0.150520388279E+00   -0.15052E+00   -0.22635E+02 20816   0.914E+02
RMM:   2    -0.539122259319E+00   -0.38860E+00    0.58318E-01 37027   0.918E+00    0.112E+00
RMM:   3    -0.582217732383E+00   -0.43095E-01    0.86559E-02 43358   0.410E+00    0.636E-01
RMM:   4    -0.608592861827E+00   -0.26375E-01    0.93312E-03 45570   0.302E+00    0.776E-02
RMM:   5    -0.609747049860E+00   -0.11542E-02    0.63326E-03 45226   0.168E+00    0.517E-02
RMM:   6    -0.611469503887E+00   -0.17225E-02    0.19962E-03 44564   0.755E-01    0.177E-02
RMM:   7    -0.612017614114E+00   -0.54811E-03    0.41420E-04 44818   0.470E-01    0.460E-03
RMM:   8    -0.612207124606E+00   -0.18951E-03    0.10423E-04 46351   0.268E-01    0.233E-03
RMM:   9    -0.612309419474E+00   -0.10229E-03    0.31995E-05 46844   0.156E-01    0.119E-03
RMM:  10    -0.612310805096E+00   -0.13856E-05    0.10514E-05 46499   0.965E-02    0.296E-04
RMM:  11    -0.612311083976E+00   -0.27888E-06    0.21105E-06 47101   0.578E-02    0.137E-04
RMM:  12    -0.612314336012E+00   -0.32520E-05    0.85962E-07 47144   0.337E-02    0.111E-04
RMM:  13    -0.612314453257E+00   -0.11725E-06    0.67693E-09 46614   0.206E-02    0.456E-05
RMM:  14    -0.612316017700E+00   -0.15644E-05   -0.36429E-08 46881   0.124E-02    0.311E-05
RMM:  15    -0.612315392231E+00    0.62547E-06   -0.65380E-08 46017   0.789E-03    0.118E-05
RMM:  16    -0.612315387642E+00    0.45891E-08   -0.35495E-08 43793   0.505E-03    0.884E-06
 Linear response to external field, progress :
  Direction:   2
       N       E                     dE             d eps       ncg     rms          rms(c)
RMM:   1    -0.150574176015E+00   -0.15057E+00   -0.22635E+02 20786   0.912E+02
RMM:   2    -0.539484900206E+00   -0.38891E+00    0.57983E-01 36889   0.911E+00    0.112E+00
RMM:   3    -0.582236881253E+00   -0.42752E-01    0.86304E-02 43391   0.406E+00    0.636E-01
RMM:   4    -0.608483282622E+00   -0.26246E-01    0.99713E-03 45568   0.301E+00    0.780E-02
RMM:   5    -0.609731799223E+00   -0.12485E-02    0.64565E-03 45146   0.166E+00    0.522E-02
RMM:   6    -0.611611509566E+00   -0.18797E-02    0.21928E-03 45249   0.737E-01    0.679E-03
RMM:   7    -0.612071917061E+00   -0.46041E-03    0.45024E-04 45548   0.410E-01    0.494E-03
RMM:   8    -0.612211184684E+00   -0.13927E-03    0.10113E-04 45993   0.215E-01    0.234E-03
RMM:   9    -0.612319714311E+00   -0.10853E-03    0.33497E-05 47185   0.128E-01    0.869E-04
RMM:  10    -0.612309242883E+00    0.10471E-04    0.11301E-05 47279   0.726E-02    0.367E-04
RMM:  11    -0.612310807733E+00   -0.15648E-05    0.26713E-06 47514   0.426E-02    0.150E-04
RMM:  12    -0.612312731198E+00   -0.19235E-05    0.45645E-07 47485   0.248E-02    0.119E-04
RMM:  13    -0.612314615617E+00   -0.18844E-05   -0.55332E-08 46965   0.153E-02    0.291E-05
RMM:  14    -0.612315604545E+00   -0.98893E-06   -0.14089E-07 46681   0.927E-03    0.259E-05
RMM:  15    -0.612315211357E+00    0.39319E-06   -0.79450E-08 45560   0.616E-03    0.665E-06
 Linear response to external field, progress :
  Direction:   3
       N       E                     dE             d eps       ncg     rms          rms(c)
RMM:   1    -0.131185031878E+00   -0.13119E+00   -0.31881E+02  8724   0.106E+03
RMM:   2    -0.359777456534E+00   -0.22859E+00    0.29225E-01 14675   0.110E+01    0.871E-01
RMM:   3    -0.392704791832E+00   -0.32927E-01    0.32746E-02 17722   0.391E+00    0.526E-01
RMM:   4    -0.402058284112E+00   -0.93535E-02    0.97660E-03 18304   0.185E+00    0.183E-01
RMM:   5    -0.409388965099E+00   -0.73307E-02    0.20921E-03 18701   0.931E-01    0.249E-02
RMM:   6    -0.409650946828E+00   -0.26198E-03    0.45661E-04 18959   0.496E-01    0.108E-02
RMM:   7    -0.409983208351E+00   -0.33226E-03    0.24409E-05 19038   0.243E-01    0.186E-03
RMM:   8    -0.410038324035E+00   -0.55116E-04    0.43324E-06 19071   0.135E-01    0.131E-03
RMM:   9    -0.410041513442E+00   -0.31894E-05   -0.26321E-06 18719   0.745E-02    0.844E-04
RMM:  10    -0.410038936340E+00    0.25771E-05   -0.97910E-07 18973   0.462E-02    0.347E-04
RMM:  11    -0.410039709851E+00   -0.77351E-06   -0.10685E-06 19259   0.279E-02    0.167E-04
RMM:  12    -0.410038398790E+00    0.13111E-05   -0.74890E-07 19073   0.181E-02    0.748E-05
RMM:  13    -0.410038451301E+00   -0.52511E-07   -0.49722E-07 18875   0.119E-02    0.282E-05
 Linear response DOF=           6
 Linear response progress:
  Degree of freedom:   1/  6
       N       E                     dE             d eps       ncg     rms          rms(c)
RMM:   1    -0.822763857759E+01   -0.82276E+01   -0.94316E+05 20981   0.499E+04
RMM:   2    -0.676916830257E+01    0.14585E+01   -0.41474E+00 45436   0.630E+01    0.515E-01
RMM:   3    -0.678666476030E+01   -0.17496E-01   -0.52975E-01 47871   0.164E+01    0.961E-02
RMM:   4    -0.679694970218E+01   -0.10285E-01   -0.11688E-01 46996   0.893E+00    0.101E-01
RMM:   5    -0.680290485248E+01   -0.59552E-02   -0.33401E-02 46700   0.489E+00    0.470E-02
RMM:   6    -0.680692632599E+01   -0.40215E-02   -0.17287E-02 47878   0.320E+00    0.109E-02
RMM:   7    -0.680768880753E+01   -0.76248E-03   -0.71119E-03 47824   0.199E+00    0.718E-03
RMM:   8    -0.680833568689E+01   -0.64688E-03   -0.51119E-03 49008   0.151E+00    0.396E-03
RMM:   9    -0.680904588137E+01   -0.71019E-03   -0.26102E-03 48740   0.107E+00    0.184E-03
RMM:  10    -0.680947984742E+01   -0.43397E-03   -0.22135E-03 49218   0.877E-01    0.606E-04
RMM:  11    -0.680971773091E+01   -0.23788E-03   -0.13282E-03 49084   0.645E-01    0.290E-04
RMM:  12    -0.680995288578E+01   -0.23515E-03   -0.11583E-03 48859   0.547E-01    0.317E-04
RMM:  13    -0.680978902171E+01    0.16386E-03   -0.83694E-04 48219   0.425E-01    0.877E-04
RMM:  14    -0.680983806212E+01   -0.49040E-04   -0.69824E-04 48514   0.363E-01    0.868E-04
RMM:  15    -0.680980961197E+01    0.28450E-04   -0.57723E-04 48125   0.297E-01    0.116E-03
RMM:  16    -0.680988845207E+01   -0.78840E-04   -0.48794E-04 48210   0.256E-01    0.897E-04
RMM:  17    -0.680995052720E+01   -0.62075E-04   -0.41662E-04 47790   0.214E-01    0.706E-04
RMM:  18    -0.680999040407E+01   -0.39877E-04   -0.37318E-04 48084   0.190E-01    0.541E-04
RMM:  19    -0.681003343899E+01   -0.43035E-04   -0.33220E-04 47841   0.163E-01    0.340E-04
RMM:  20    -0.681004220318E+01   -0.87642E-05   -0.28724E-04 47401   0.144E-01    0.287E-04
RMM:  21    -0.681010548174E+01   -0.63279E-04   -0.27104E-04 47654   0.125E-01    0.523E-05
RMM:  22    -0.681011986618E+01   -0.14384E-04   -0.20629E-04 47180   0.108E-01    0.775E-05
RMM:  23    -0.681011105859E+01    0.88076E-05   -0.20169E-04 46484   0.971E-02    0.415E-05
RMM:  24    -0.681011454034E+01   -0.34817E-05   -0.13356E-04 46928   0.820E-02    0.316E-05
RMM:  25    -0.681011622333E+01   -0.16830E-05   -0.13363E-04 46307   0.695E-02    0.323E-05
RMM:  26    -0.681011358445E+01    0.26389E-05   -0.88712E-05 46429   0.597E-02    0.917E-06
RMM:  27    -0.681011627464E+01   -0.26902E-05   -0.11022E-04 46190   0.560E-02    0.154E-05
RMM:  28    -0.681011555120E+01    0.72345E-06   -0.62711E-05 46403   0.478E-02    0.536E-06
RMM:  29    -0.681011541458E+01    0.13662E-06   -0.84970E-05 45950   0.462E-02    0.737E-06
RMM:  30    -0.681011627911E+01   -0.86453E-06   -0.41490E-05 46187   0.388E-02    0.487E-06
RMM:  31    -0.681011664201E+01   -0.36290E-06   -0.50919E-05 45924   0.364E-02    0.718E-06
RMM:  32    -0.681011684478E+01   -0.20276E-06   -0.24980E-05 46066   0.309E-02    0.672E-06
RMM:  33    -0.681011698139E+01   -0.13662E-06   -0.13566E-05 45877   0.256E-02    0.870E-06
RMM:  34    -0.681011695291E+01    0.28483E-07   -0.16055E-05 46015   0.247E-02    0.873E-06
RMM:  35    -0.681011721971E+01   -0.26680E-06   -0.11828E-05 45771   0.223E-02    0.933E-06
RMM:  36    -0.681011735695E+01   -0.13725E-06   -0.14918E-05 46146   0.226E-02    0.861E-06
 Linear response progress:
  Degree of freedom:   2/  6
       N       E                     dE             d eps       ncg     rms          rms(c)
RMM:   1    -0.917730296577E+01   -0.91773E+01   -0.92410E+05  8526   0.495E+04
RMM:   2    -0.699185261190E+01    0.21855E+01   -0.41125E+00 19223   0.581E+01    0.399E-01
RMM:   3    -0.700937258063E+01   -0.17520E-01   -0.49734E-01 19633   0.188E+01    0.127E-01
RMM:   4    -0.701750987980E+01   -0.81373E-02   -0.13828E-01 19415   0.105E+01    0.133E-01
RMM:   5    -0.702363423371E+01   -0.61244E-02   -0.42081E-02 19473   0.553E+00    0.550E-02
RMM:   6    -0.702817858993E+01   -0.45444E-02   -0.19166E-02 20086   0.353E+00    0.155E-02
RMM:   7    -0.702903543260E+01   -0.85684E-03   -0.11478E-02 19775   0.244E+00    0.667E-03
RMM:   8    -0.702962788187E+01   -0.59245E-03   -0.66186E-03 20090   0.181E+00    0.613E-03
RMM:   9    -0.703034995999E+01   -0.72208E-03   -0.51003E-03 20176   0.143E+00    0.571E-03
RMM:  10    -0.703238575767E+01   -0.20358E-02   -0.33399E-03 20439   0.115E+00    0.259E-03
RMM:  11    -0.703186007410E+01    0.52568E-03   -0.28241E-03 20406   0.938E-01    0.852E-04
RMM:  12    -0.703190446571E+01   -0.44392E-04   -0.20073E-03 20278   0.781E-01    0.118E-03
RMM:  13    -0.703186088199E+01    0.43584E-04   -0.19396E-03 20323   0.675E-01    0.167E-03
RMM:  14    -0.703185238114E+01    0.85009E-05   -0.13342E-03 20217   0.566E-01    0.199E-03
RMM:  15    -0.703176443436E+01    0.87947E-04   -0.14296E-03 19995   0.515E-01    0.250E-03
RMM:  16    -0.703223670477E+01   -0.47227E-03   -0.97015E-04 20032   0.437E-01    0.783E-04
RMM:  17    -0.703256415323E+01   -0.32745E-03   -0.10558E-03 19992   0.400E-01    0.591E-04
RMM:  18    -0.703254049848E+01    0.23655E-04   -0.71593E-04 19988   0.334E-01    0.485E-04
RMM:  19    -0.703268654848E+01   -0.14605E-03   -0.82290E-04 20051   0.316E-01    0.949E-04
RMM:  20    -0.703289792675E+01   -0.21138E-03   -0.52701E-04 19662   0.265E-01    0.156E-03
RMM:  21    -0.703311157396E+01   -0.21365E-03   -0.57384E-04 19777   0.242E-01    0.220E-03
RMM:  22    -0.703278883742E+01    0.32274E-03   -0.33752E-04 19353   0.195E-01    0.878E-04
RMM:  23    -0.703258622997E+01    0.20261E-03   -0.40018E-04 19607   0.176E-01    0.134E-04
RMM:  24    -0.703257432734E+01    0.11903E-04   -0.24574E-04 19482   0.146E-01    0.556E-05
RMM:  25    -0.703254234767E+01    0.31980E-04   -0.32725E-04 19519   0.139E-01    0.117E-04
RMM:  26    -0.703254545721E+01   -0.31095E-05   -0.18649E-04 19386   0.113E-01    0.122E-04
RMM:  27    -0.703254726242E+01   -0.18052E-05   -0.19097E-04 19222   0.101E-01    0.122E-04
RMM:  28    -0.703254915573E+01   -0.18933E-05   -0.11386E-04 19229   0.798E-02    0.125E-04
RMM:  29    -0.703255022990E+01   -0.10742E-05   -0.87514E-05 19215   0.613E-02    0.125E-04
RMM:  30    -0.703255253039E+01   -0.23005E-05   -0.78075E-05 19212   0.549E-02    0.120E-04
RMM:  31    -0.703255298903E+01   -0.45864E-06   -0.76220E-05 19178   0.486E-02    0.120E-04
RMM:  32    -0.703257124777E+01   -0.18259E-04   -0.61961E-05 19107   0.425E-02    0.546E-05
RMM:  33    -0.703257603356E+01   -0.47858E-05   -0.64953E-05 19122   0.390E-02    0.405E-05
RMM:  34    -0.703257818102E+01   -0.21475E-05   -0.46059E-05 19026   0.334E-02    0.331E-05
RMM:  35    -0.703258027799E+01   -0.20970E-05   -0.46425E-05 19136   0.306E-02    0.258E-05
RMM:  36    -0.703258132777E+01   -0.10498E-05   -0.23010E-05 19075   0.237E-02    0.237E-05
RMM:  37    -0.703258152365E+01   -0.19589E-06   -0.18781E-05 19082   0.207E-02    0.245E-05
RMM:  38    -0.703258176315E+01   -0.23949E-06   -0.65891E-06 19119   0.158E-02    0.242E-05
RMM:  39    -0.703258180956E+01   -0.46418E-07   -0.14162E-06 19074   0.124E-02    0.247E-05
RMM:  40    -0.703258204795E+01   -0.23839E-06   -0.11132E-06 19013   0.106E-02    0.237E-05
RMM:  41    -0.703258273232E+01   -0.68437E-06   -0.89437E-07 19116   0.992E-03    0.212E-05
RMM:  42    -0.703258371536E+01   -0.98304E-06   -0.67058E-07 19100   0.912E-03    0.198E-05
RMM:  43    -0.703258437232E+01   -0.65696E-06   -0.67827E-07 19110   0.932E-03    0.192E-05
 Linear response progress:
  Degree of freedom:   3/  6
       N       E                     dE             d eps       ncg     rms          rms(c)
RMM:   1    -0.755582475333E-02   -0.75558E-02   -0.32307E-02 41719   0.192E+00
RMM:   2    -0.556373084998E-02    0.19921E-02   -0.99672E-04 42399   0.623E-01    0.638E-02
RMM:   3    -0.555308566382E-02    0.10645E-04   -0.22086E-04 44221   0.364E-01    0.374E-02
RMM:   4    -0.558516435901E-02   -0.32079E-04   -0.74931E-05 44943   0.134E-01    0.408E-03
RMM:   5    -0.557729547522E-02    0.78689E-05   -0.18785E-05 45859   0.716E-02    0.201E-03
RMM:   6    -0.557993105311E-02   -0.26356E-05   -0.43773E-06 45173   0.350E-02    0.781E-04
RMM:   7    -0.557884485334E-02    0.10862E-05   -0.14280E-06 44745   0.177E-02    0.340E-04
RMM:   8    -0.557893775413E-02   -0.92901E-07   -0.41912E-07 43944   0.930E-03    0.104E-04
 Linear response progress:
  Degree of freedom:   4/  6
       N       E                     dE             d eps       ncg     rms          rms(c)
RMM:   1    -0.281722093895E-01   -0.28172E-01   -0.19597E-01 18958   0.216E+01
RMM:   2    -0.115333393643E-01    0.16639E-01    0.40774E-03 17969   0.761E-01    0.784E-02
RMM:   3    -0.118320073340E-01   -0.29867E-03   -0.42123E-04 18090   0.422E-01    0.509E-02
RMM:   4    -0.114742902351E-01    0.35772E-03   -0.49461E-04 18507   0.273E-01    0.133E-02
RMM:   5    -0.114550914711E-01    0.19199E-04   -0.36698E-05 17488   0.128E-01    0.700E-03
RMM:   6    -0.114534066624E-01    0.16848E-05   -0.81405E-06 17658   0.678E-02    0.274E-03
RMM:   7    -0.114530011783E-01    0.40548E-06   -0.30368E-06 17288   0.407E-02    0.109E-03
RMM:   8    -0.114533821659E-01   -0.38099E-06   -0.80645E-07 16899   0.246E-02    0.639E-04
RMM:   9    -0.114551362486E-01   -0.17541E-05   -0.22087E-07 17862   0.149E-02    0.176E-04
RMM:  10    -0.114547171021E-01    0.41915E-06   -0.12701E-07 17955   0.846E-03    0.586E-05
RMM:  11    -0.114547252856E-01   -0.81835E-08   -0.74860E-08 17657   0.528E-03    0.367E-05
 Linear response progress:
  Degree of freedom:   5/  6
       N       E                     dE             d eps       ncg     rms          rms(c)
RMM:   1    -0.427090301164E+00   -0.42709E+00   -0.63086E-01 72928   0.202E+01
RMM:   2    -0.376807036008E+00    0.50283E-01   -0.27158E-02 80723   0.284E+00    0.167E-01
RMM:   3    -0.379670549473E+00   -0.28635E-02   -0.69522E-03 76161   0.168E+00    0.850E-02
RMM:   4    -0.382012142295E+00   -0.23416E-02   -0.15848E-03 73905   0.772E-01    0.141E-02
RMM:   5    -0.382182036978E+00   -0.16989E-03   -0.37732E-04 75369   0.368E-01    0.720E-03
RMM:   6    -0.382038394731E+00    0.14364E-03   -0.86818E-05 75749   0.188E-01    0.229E-03
RMM:   7    -0.382093980379E+00   -0.55586E-04   -0.28001E-05 74215   0.999E-02    0.195E-03
RMM:   8    -0.382080581199E+00    0.13399E-04   -0.67204E-06 74363   0.471E-02    0.690E-04
RMM:   9    -0.382072384827E+00    0.81964E-05   -0.23704E-06 74394   0.265E-02    0.235E-04
RMM:  10    -0.382072068971E+00    0.31586E-06   -0.76478E-07 74933   0.140E-02    0.453E-04
RMM:  11    -0.382068086811E+00    0.39822E-05   -0.34734E-07 75721   0.877E-03    0.663E-05
RMM:  12    -0.382067635568E+00    0.45124E-06   -0.24160E-07 74321   0.583E-03    0.180E-05
RMM:  13    -0.382067832475E+00   -0.19691E-06   -0.14832E-07 75199   0.442E-03    0.122E-05
RMM:  14    -0.382068011723E+00   -0.17925E-06   -0.16295E-07 74837   0.367E-03    0.138E-05
RMM:  15    -0.382067950515E+00    0.61208E-07   -0.18084E-07 73709   0.328E-03    0.668E-06
 Linear response progress:
  Degree of freedom:   6/  6
       N       E                     dE             d eps       ncg     rms          rms(c)
RMM:   1    -0.409570007680E+00   -0.40957E+00   -0.13067E+00 14765   0.783E+01
RMM:   2    -0.407700142278E+00    0.18699E-02   -0.57193E-02 18377   0.505E+00    0.182E-01
RMM:   3    -0.410905724238E+00   -0.32056E-02   -0.10609E-02 18054   0.232E+00    0.945E-02
RMM:   4    -0.412438139698E+00   -0.15324E-02   -0.27151E-03 17508   0.128E+00    0.559E-02
RMM:   5    -0.412703700550E+00   -0.26556E-03   -0.63133E-04 17228   0.746E-01    0.186E-02
RMM:   6    -0.412731624592E+00   -0.27924E-04   -0.15614E-04 18041   0.252E-01    0.946E-03
RMM:   7    -0.412685711296E+00    0.45913E-04   -0.35317E-05 18168   0.134E-01    0.205E-03
RMM:   8    -0.412697718539E+00   -0.12007E-04   -0.91965E-06 18163   0.586E-02    0.922E-04
RMM:   9    -0.412683785064E+00    0.13933E-04   -0.30921E-06 18152   0.333E-02    0.373E-04
RMM:  10    -0.412681647666E+00    0.21374E-05   -0.92303E-07 17850   0.174E-02    0.173E-04
RMM:  11    -0.412681483206E+00    0.16446E-06   -0.46654E-07 17859   0.103E-02    0.491E-05
RMM:  12    -0.412682036578E+00   -0.55337E-06   -0.28211E-07 18114   0.647E-03    0.278E-05
RMM:  13    -0.412681642680E+00    0.39390E-06   -0.26043E-07 17607   0.469E-03    0.110E-05
RMM:  14    -0.412681564346E+00    0.78334E-07   -0.23123E-07 17629   0.370E-03    0.470E-06
 Linear response finished
