 vasp.5.4.4.18Apr17-6-g9f103f2a35 (build Dec 13 2019 19:06:22) complex          
  
 executed on             LinuxIFC date 2021.07.02  09:19:05
 running on   12 total cores
 distrk:  each k-point on   12 cores,    1 groups
 distr:  one band on NCORES_PER_BAND=   6 cores,    2 groups


--------------------------------------------------------------------------------------------------------


 INCAR:
 POTCAR:    PAW_PBE Cu_sv_GW 05Dec2013            
 POTCAR:    PAW_PBE Al_GW 19Mar2012               
 POTCAR:    PAW_PBE O_GW 28Sep2005                
 POTCAR:    PAW_PBE Cu_sv_GW 05Dec2013            
   VRHFIN =Cu: d10 p1                                                           
   LEXCH  = PE                                                                  
   EATOM  =  5382.7943 eV,  395.6242 Ry                                         
                                                                                
   TITEL  = PAW_PBE Cu_sv_GW 05Dec2013                                          
   LULTRA =        F    use ultrasoft PP ?                                      
   IUNSCR =        1    unscreen: 0-lin 1-nonlin 2-no                           
   RPACOR =    1.400    partial core radius                                     
   POMASS =   63.546; ZVAL   =   19.000    mass and valenz                      
   RCORE  =    1.900    outmost cutoff radius                                   
   RWIGS  =    2.100; RWIGS  =    1.111    wigner-seitz radius (au A)           
   ENMAX  =  391.688; ENMIN  =  293.766 eV                                      
   RCLOC  =    1.304    cutoff for local pot                                    
   LCOR   =        T    correct aug charges                                     
   LPAW   =        T    paw PP                                                  
   EAUG   =  982.892                                                            
   RMAX   =    1.950    core radius for proj-oper                               
   RAUG   =    1.300    factor for augmentation sphere                          
   RDEP   =    2.025    radius for radial grids                                 
   RDEPT  =    1.600    core radius for aug-charge                              
                                                                                
   Atomic configuration                                                         
    9 entries                                                                   
     n  l   j            E        occ.                                          
     1  0  0.50     -8850.2467   2.0000                                         
     2  0  0.50     -1062.3498   2.0000                                         
     2  1  1.50      -916.8226   6.0000                                         
     3  0  0.50      -114.6929   2.0000                                         
     4  0  0.50        -4.6097   1.0000                                         
     3  1  1.50       -72.1325   6.0000                                         
     3  1  1.50       -76.2144   0.0000                                         
     3  2  2.50        -5.0394  10.0000                                         
     4  3  2.50        -1.3606   0.0000                                         
   Description                                                                  
     l       E           TYP  RCUT    TYP  RCUT                                 
     0   -114.6929173     23  1.330                                             
     0     -4.6097111     23  1.700                                             
     0    204.0873900     23  1.330                                             
     1    -72.1324964     23  1.650                                             
     1    -76.2143949     23  1.650                                             
     1    136.0582600     23  1.650                                             
     2     -5.0393943     23  1.900                                             
     2     27.2116520     23  1.900                                             
     2    136.0582600     23  1.900                                             
     3     27.2116520     23  1.900                                             
     3    136.0582600     23  1.900                                             
  local pseudopotential read in
  partial core-charges read in
  partial kinetic energy density read in
  kinetic energy density of atom read in
  atomic valenz-charges read in
  non local Contribution for L=           0  read in
    real space projection operators read in
  non local Contribution for L=           0  read in
    real space projection operators read in
  non local Contribution for L=           0  read in
    real space projection operators read in
  non local Contribution for L=           1  read in
    real space projection operators read in
  non local Contribution for L=           1  read in
    real space projection operators read in
  non local Contribution for L=           1  read in
    real space projection operators read in
  non local Contribution for L=           2  read in
    real space projection operators read in
  non local Contribution for L=           2  read in
    real space projection operators read in
  non local Contribution for L=           2  read in
    real space projection operators read in
  non local Contribution for L=           3  read in
    real space projection operators read in
  non local Contribution for L=           3  read in
    real space projection operators read in
    PAW grid and wavefunctions read in
 
   number of l-projection  operators is LMAX  =          11
   number of lm-projection operators is LMMAX =          41
 
 POTCAR:    PAW_PBE Al_GW 19Mar2012               
   VRHFIN =Al: s2p1                                                             
   LEXCH  = PE                                                                  
   EATOM  =    53.5387 eV,    3.9350 Ry                                         
                                                                                
   TITEL  = PAW_PBE Al_GW 19Mar2012                                             
   LULTRA =        F    use ultrasoft PP ?                                      
   IUNSCR =        1    unscreen: 0-lin 1-nonlin 2-no                           
   RPACOR =    1.500    partial core radius                                     
   POMASS =   26.982; ZVAL   =    3.000    mass and valenz                      
   RCORE  =    2.000    outmost cutoff radius                                   
   RWIGS  =    2.000; RWIGS  =    1.058    wigner-seitz radius (au A)           
   ENMAX  =  240.300; ENMIN  =  180.225 eV                                      
   ICORE  =        3    local potential                                         
   LCOR   =        T    correct aug charges                                     
   LPAW   =        T    paw PP                                                  
   EAUG   =  482.059                                                            
   DEXC   =    0.000                                                            
   RMAX   =    2.051    core radius for proj-oper                               
   RAUG   =    1.300    factor for augmentation sphere                          
   RDEP   =    2.096    radius for radial grids                                 
   RDEPT  =    1.856    core radius for aug-charge                              
                                                                                
   Atomic configuration                                                         
    7 entries                                                                   
     n  l   j            E        occ.                                          
     1  0  0.50     -1511.1048   2.0000                                         
     2  0  0.50      -108.1629   2.0000                                         
     2  1  1.50       -69.6402   6.0000                                         
     3  0  0.50        -7.7528   2.0000                                         
     3  1  1.50        -2.7121   1.0000                                         
     3  2  2.50        -2.7212   0.0000                                         
     4  3  2.50        -2.7212   0.0000                                         
   Description                                                                  
     l       E           TYP  RCUT    TYP  RCUT                                 
     0     -7.7528455     23  1.900                                             
     0     68.0291300     23  1.900                                             
     1     -2.7120682     23  1.900                                             
     1     68.0291300     23  1.900                                             
     2     -1.3605826     23  1.900                                             
     2     81.6349560     23  1.900                                             
     3     74.8320430     23  2.000                                             
  local pseudopotential read in
  partial core-charges read in
  partial kinetic energy density read in
  kinetic energy density of atom read in
  atomic valenz-charges read in
  non local Contribution for L=           0  read in
    real space projection operators read in
  non local Contribution for L=           0  read in
    real space projection operators read in
  non local Contribution for L=           1  read in
    real space projection operators read in
  non local Contribution for L=           1  read in
    real space projection operators read in
  non local Contribution for L=           2  read in
    real space projection operators read in
  non local Contribution for L=           2  read in
    real space projection operators read in
    PAW grid and wavefunctions read in
 
   number of l-projection  operators is LMAX  =           6
   number of lm-projection operators is LMMAX =          18
 
 POTCAR:    PAW_PBE O_GW 28Sep2005                
   VRHFIN =O: s2p4                                                              
   LEXCH  = PE                                                                  
   EATOM  =   432.3788 eV,   31.7789 Ry                                         
                                                                                
   TITEL  = PAW_PBE O_GW 28Sep2005                                              
   LULTRA =        F    use ultrasoft PP ?                                      
   IUNSCR =        0    unscreen: 0-lin 1-nonlin 2-no                           
   RPACOR =    0.000    partial core radius                                     
   POMASS =   16.000; ZVAL   =    6.000    mass and valenz                      
   RCORE  =    1.520    outmost cutoff radius                                   
   RWIGS  =    1.550; RWIGS  =    0.820    wigner-seitz radius (au A)           
   ENMAX  =  414.635; ENMIN  =  310.976 eV                                      
   ICORE  =        2    local potential                                         
   LCOR   =        T    correct aug charges                                     
   LPAW   =        T    paw PP                                                  
   EAUG   =  605.392                                                            
   DEXC   =    0.000                                                            
   RMAX   =    1.553    core radius for proj-oper                               
   RAUG   =    1.300    factor for augmentation sphere                          
   RDEP   =    1.550    radius for radial grids                                 
   RDEPT  =    1.329    core radius for aug-charge                              
                                                                                
   Atomic configuration                                                         
    4 entries                                                                   
     n  l   j            E        occ.                                          
     1  0  0.50      -514.6923   2.0000                                         
     2  0  0.50       -23.9615   2.0000                                         
     2  1  0.50        -9.0305   4.0000                                         
     3  2  1.50        -9.5241   0.0000                                         
   Description                                                                  
     l       E           TYP  RCUT    TYP  RCUT                                 
     0    -23.9615316     23  1.200                                             
     0     81.6349560     23  1.200                                             
     1     -9.0304908     23  1.520                                             
     1     81.6349560     23  1.520                                             
     2     -9.5240782      7  1.500                                             
  local pseudopotential read in
  kinetic energy density of atom read in
  atomic valenz-charges read in
  non local Contribution for L=           0  read in
    real space projection operators read in
  non local Contribution for L=           0  read in
    real space projection operators read in
  non local Contribution for L=           1  read in
    real space projection operators read in
  non local Contribution for L=           1  read in
    real space projection operators read in
    PAW grid and wavefunctions read in
 
   number of l-projection  operators is LMAX  =           4
   number of lm-projection operators is LMMAX =           8
 

 ----------------------------------------------------------------------------- 
|                                                                             |
|  ADVICE TO THIS USER RUNNING 'VASP/VAMP'   (HEAR YOUR MASTER'S VOICE ...):  |
|                                                                             |
|      You enforced a specific xc-type in the INCAR file,                     |
|      a different type was found on the POTCAR file                          |
|          I HOPE YOU KNOW, WHAT YOU ARE  DOING                               |
|                                                                             |
 ----------------------------------------------------------------------------- 

  PAW_PBE Cu_sv_GW 05Dec2013            :
 energy of atom  1       EATOM=-5382.7943
 kinetic energy error for atom=    0.0943 (will be added to EATOM!!)
  PAW_PBE Al_GW 19Mar2012               :
 energy of atom  2       EATOM=  -53.5387
 kinetic energy error for atom=    0.0002 (will be added to EATOM!!)
  PAW_PBE O_GW 28Sep2005                :
 energy of atom  3       EATOM= -432.3788
 kinetic energy error for atom=    0.0194 (will be added to EATOM!!)
 
 
 POSCAR: CuAlO2 BenkoF84                         
  positions in direct lattice
  No initial velocities read in
 exchange correlation table for  LEXCH =       14
   RHO(1)=    0.500       N(1)  =     2000
   RHO(2)=  100.500       N(2)  =     4000
 


--------------------------------------------------------------------------------------------------------


 ion  position               nearest neighbor table
   1  0.000  0.000  0.000-   3 1.85   4 1.85
   2  0.500  0.500  0.500-   3 1.90   4 1.90   3 1.90   3 1.90   4 1.90   4 1.90
   3  0.110  0.110  0.110-   1 1.85   2 1.90   2 1.90   2 1.90
   4  0.890  0.890  0.890-   1 1.85   2 1.90   2 1.90   2 1.90
 
  LATTYP: Found a trigonal (rhomboedric) cell.
 ALAT       =     5.8622747487
 COS(alpha) =     0.8826433487
  
  Lattice vectors:
  
 A1 = (   1.4200545446,   0.8198688751,   5.6282790774)
 A2 = (  -1.4200545446,   0.8198688751,   5.6282790774)
 A3 = (   0.0000000000,  -1.6397377402,   5.6282790774)


Analysis of symmetry for initial positions (statically):
=====================================================================
 Subroutine PRICEL returns:
 Original cell was already a primitive cell.
 

 Routine SETGRP: Setting up the symmetry group for a 
 trigonal (rhombohedral) supercell.


 Subroutine GETGRP returns: Found 12 space group operations
 (whereof 12 operations were pure point group operations)
 out of a pool of 12 trial point group operations.


The static configuration has the point symmetry D_3d.


Analysis of symmetry for dynamics (positions and initial velocities):
=====================================================================
 Subroutine PRICEL returns:
 Original cell was already a primitive cell.
 

 Routine SETGRP: Setting up the symmetry group for a 
 trigonal (rhombohedral) supercell.


 Subroutine GETGRP returns: Found 12 space group operations
 (whereof 12 operations were pure point group operations)
 out of a pool of 12 trial point group operations.


The dynamic configuration has the point symmetry D_3d.


 Subroutine INISYM returns: Found 12 space group operations
 (whereof 12 operations are pure point group operations),
 and found     1 'primitive' translations

 
 
 KPOINTS: CuMO2                                   

Automatic generation of k-mesh.
Space group operators:
 irot       det(A)        alpha          n_x          n_y          n_z        tau_x        tau_y        tau_z
    1     1.000000     0.000000     1.000000     0.000000     0.000000     0.000000     0.000000     0.000000
    2    -1.000000     0.000000     1.000000     0.000000     0.000000     0.000000     0.000000     0.000000
    3     1.000000   180.000000    -0.500000     0.866025    -0.000000     0.000000     0.000000     0.000000
    4    -1.000000   180.000000    -0.500000     0.866025    -0.000000     0.000000     0.000000     0.000000
    5     1.000000   120.000000     0.000000    -0.000000    -1.000000     0.000000     0.000000     0.000000
    6    -1.000000   120.000000     0.000000    -0.000000    -1.000000     0.000000     0.000000     0.000000
    7     1.000000   180.000000     1.000000     0.000000     0.000000     0.000000     0.000000     0.000000
    8    -1.000000   180.000000     1.000000     0.000000     0.000000     0.000000     0.000000     0.000000
    9     1.000000   120.000000     0.000000     0.000000     1.000000     0.000000     0.000000     0.000000
   10    -1.000000   120.000000     0.000000     0.000000     1.000000     0.000000     0.000000     0.000000
   11     1.000000   180.000000     0.500000     0.866025    -0.000000     0.000000     0.000000     0.000000
   12    -1.000000   180.000000     0.500000     0.866025    -0.000000     0.000000     0.000000     0.000000
 
 Subroutine IBZKPT returns following result:
 ===========================================
 
 Found    116 irreducible k-points:
 
 Following reciprocal coordinates:
            Coordinates               Weight
  0.000000  0.000000  0.000000      1.000000
  0.100000  0.000000  0.000000      6.000000
  0.200000  0.000000  0.000000      6.000000
  0.300000  0.000000  0.000000      6.000000
  0.400000  0.000000  0.000000      6.000000
  0.500000  0.000000  0.000000      3.000000
  0.100000  0.100000  0.000000      6.000000
  0.200000  0.100000  0.000000     12.000000
  0.300000  0.100000  0.000000     12.000000
  0.400000  0.100000  0.000000     12.000000
  0.500000  0.100000  0.000000     12.000000
 -0.400000  0.100000 -0.000000     12.000000
 -0.300000  0.100000 -0.000000     12.000000
 -0.200000  0.100000 -0.000000     12.000000
 -0.100000  0.100000  0.000000      6.000000
  0.200000  0.200000  0.000000      6.000000
  0.300000  0.200000  0.000000     12.000000
  0.400000  0.200000  0.000000     12.000000
  0.500000  0.200000 -0.000000     12.000000
 -0.400000  0.200000 -0.000000     12.000000
 -0.300000  0.200000 -0.000000     12.000000
 -0.200000  0.200000  0.000000      6.000000
  0.300000  0.300000  0.000000      6.000000
  0.400000  0.300000  0.000000     12.000000
  0.500000  0.300000  0.000000     12.000000
 -0.400000  0.300000  0.000000     12.000000
 -0.300000  0.300000  0.000000      6.000000
  0.400000  0.400000  0.000000      6.000000
  0.500000  0.400000 -0.000000     12.000000
 -0.400000  0.400000  0.000000      6.000000
  0.500000  0.500000  0.000000      3.000000
  0.100000  0.100000  0.100000      2.000000
  0.200000  0.100000  0.100000      6.000000
  0.300000  0.100000  0.100000      6.000000
  0.400000  0.100000  0.100000      6.000000
  0.500000  0.100000  0.100000      6.000000
 -0.400000  0.100000  0.100000      6.000000
 -0.300000  0.100000  0.100000      6.000000
 -0.200000  0.100000  0.100000      6.000000
 -0.100000  0.100000  0.100000      6.000000
  0.200000  0.200000  0.100000      6.000000
  0.300000  0.200000  0.100000     12.000000
  0.400000  0.200000  0.100000     12.000000
  0.500000  0.200000  0.100000     12.000000
 -0.400000  0.200000  0.100000     12.000000
 -0.300000  0.200000  0.100000     12.000000
 -0.200000  0.200000  0.100000     12.000000
 -0.100000  0.200000  0.100000     12.000000
  0.300000  0.300000  0.100000      6.000000
  0.400000  0.300000  0.100000     12.000000
  0.500000  0.300000  0.100000     12.000000
 -0.400000  0.300000  0.100000     12.000000
 -0.300000  0.300000  0.100000     12.000000
 -0.200000  0.300000  0.100000     12.000000
 -0.100000  0.300000  0.100000     12.000000
  0.400000  0.400000  0.100000      6.000000
  0.500000  0.400000  0.100000     12.000000
 -0.400000  0.400000  0.100000     12.000000
 -0.300000  0.400000  0.100000     12.000000
 -0.200000  0.400000  0.100000     12.000000
 -0.100000  0.400000  0.100000     12.000000
  0.500000  0.500000  0.100000      6.000000
 -0.400000  0.500000  0.100000     12.000000
 -0.300000  0.500000  0.100000     12.000000
 -0.200000  0.500000  0.100000     12.000000
 -0.100000  0.500000  0.100000      6.000000
 -0.400000 -0.400000  0.100000      6.000000
 -0.300000 -0.400000  0.100000     12.000000
 -0.200000 -0.400000  0.100000     12.000000
 -0.300000 -0.300000  0.100000      6.000000
 -0.200000 -0.300000  0.100000     12.000000
 -0.200000 -0.200000  0.100000      6.000000
  0.200000  0.200000  0.200000      2.000000
  0.300000  0.200000  0.200000      6.000000
  0.400000  0.200000  0.200000      6.000000
  0.500000  0.200000  0.200000      6.000000
 -0.400000  0.200000  0.200000      6.000000
 -0.300000  0.200000  0.200000      6.000000
 -0.200000  0.200000  0.200000      6.000000
  0.300000  0.300000  0.200000      6.000000
  0.400000  0.300000  0.200000     12.000000
  0.500000  0.300000  0.200000     12.000000
 -0.400000  0.300000  0.200000     12.000000
 -0.300000  0.300000  0.200000     12.000000
 -0.200000  0.300000  0.200000     12.000000
  0.400000  0.400000  0.200000      6.000000
  0.500000  0.400000  0.200000     12.000000
 -0.400000  0.400000  0.200000     12.000000
 -0.300000  0.400000  0.200000     12.000000
 -0.200000  0.400000  0.200000     12.000000
  0.500000  0.500000  0.200000      6.000000
 -0.400000  0.500000  0.200000     12.000000
 -0.300000  0.500000  0.200000     12.000000
 -0.200000  0.500000  0.200000      6.000000
 -0.400000 -0.400000  0.200000      6.000000
 -0.300000 -0.400000  0.200000     12.000000
 -0.300000 -0.300000  0.200000      6.000000
  0.300000  0.300000  0.300000      2.000000
  0.400000  0.300000  0.300000      6.000000
  0.500000  0.300000  0.300000      6.000000
 -0.400000  0.300000  0.300000      6.000000
 -0.300000  0.300000  0.300000      6.000000
  0.400000  0.400000  0.300000      6.000000
  0.500000  0.400000  0.300000     12.000000
 -0.400000  0.400000  0.300000     12.000000
 -0.300000  0.400000  0.300000     12.000000
  0.500000  0.500000  0.300000      6.000000
 -0.400000  0.500000  0.300000     12.000000
 -0.300000  0.500000  0.300000      6.000000
 -0.400000 -0.400000  0.300000      6.000000
  0.400000  0.400000  0.400000      2.000000
  0.500000  0.400000  0.400000      6.000000
 -0.400000  0.400000  0.400000      6.000000
  0.500000  0.500000  0.400000      6.000000
 -0.400000  0.500000  0.400000      6.000000
  0.500000  0.500000  0.500000      1.000000
 
 Following cartesian coordinates:
            Coordinates               Weight
  0.000000  0.000000  0.000000      1.000000
  0.035210  0.020328  0.005922      6.000000
  0.070420  0.040657  0.011845      6.000000
  0.105630  0.060985  0.017767      6.000000
  0.140840  0.081314  0.023690      6.000000
  0.176050  0.101642  0.029612      3.000000
  0.000000  0.040657  0.011845      6.000000
  0.035210  0.060985  0.017767     12.000000
  0.070420  0.081314  0.023690     12.000000
  0.105630  0.101642  0.029612     12.000000
  0.140840  0.121971  0.035535     12.000000
 -0.176050 -0.060985 -0.017767     12.000000
 -0.140840 -0.040657 -0.011845     12.000000
 -0.105630 -0.020328 -0.005922     12.000000
 -0.070420  0.000000  0.000000      6.000000
 -0.000000  0.081314  0.023690      6.000000
  0.035210  0.101642  0.029612     12.000000
  0.070420  0.121971  0.035535     12.000000
  0.105630  0.142299  0.041457     12.000000
 -0.211259 -0.040657 -0.011845     12.000000
 -0.176050 -0.020328 -0.005922     12.000000
 -0.140840  0.000000  0.000000      6.000000
  0.000000  0.121971  0.035535      6.000000
  0.035210  0.142299  0.041457     12.000000
  0.070420  0.162628  0.047380     12.000000
 -0.246469 -0.020328 -0.005922     12.000000
 -0.211259 -0.000000  0.000000      6.000000
 -0.000000  0.162628  0.047380      6.000000
  0.035210  0.182956  0.053302     12.000000
 -0.281679  0.000000  0.000000      6.000000
  0.000000  0.203285  0.059225      3.000000
 -0.000000  0.000000  0.017767      2.000000
  0.035210  0.020328  0.023690      6.000000
  0.070420  0.040657  0.029612      6.000000
  0.105630  0.060985  0.035535      6.000000
  0.140840  0.081314  0.041457      6.000000
 -0.176050 -0.101642 -0.011845      6.000000
 -0.140840 -0.081314 -0.005922      6.000000
 -0.105630 -0.060985  0.000000      6.000000
 -0.070420 -0.040657  0.005922      6.000000
  0.000000  0.040657  0.029612      6.000000
  0.035210  0.060985  0.035535     12.000000
  0.070420  0.081314  0.041457     12.000000
  0.105630  0.101642  0.047380     12.000000
 -0.211259 -0.081314 -0.005922     12.000000
 -0.176050 -0.060985  0.000000     12.000000
 -0.140840 -0.040657  0.005922     12.000000
 -0.105630 -0.020328  0.011845     12.000000
  0.000000  0.081314  0.041457      6.000000
  0.035210  0.101642  0.047380     12.000000
  0.070420  0.121971  0.053302     12.000000
 -0.246469 -0.060985  0.000000     12.000000
 -0.211259 -0.040657  0.005922     12.000000
 -0.176050 -0.020328  0.011845     12.000000
 -0.140840 -0.000000  0.017767     12.000000
  0.000000  0.121971  0.053302      6.000000
  0.035210  0.142299  0.059225     12.000000
 -0.281679 -0.040657  0.005922     12.000000
 -0.246469 -0.020328  0.011845     12.000000
 -0.211259 -0.000000  0.017767     12.000000
 -0.176050  0.020328  0.023690     12.000000
  0.000000  0.162628  0.065147      6.000000
 -0.316889 -0.020328  0.011845     12.000000
 -0.281679 -0.000000  0.017767     12.000000
 -0.246469  0.020328  0.023690     12.000000
 -0.211259  0.040657  0.029612      6.000000
  0.000000 -0.203285 -0.041457      6.000000
  0.035210 -0.182956 -0.035535     12.000000
  0.070420 -0.162628 -0.029612     12.000000
  0.000000 -0.162628 -0.029612      6.000000
  0.035210 -0.142299 -0.023690     12.000000
  0.000000 -0.121971 -0.017767      6.000000
  0.000000  0.000000  0.035535      2.000000
  0.035210  0.020328  0.041457      6.000000
  0.070420  0.040657  0.047380      6.000000
  0.105630  0.060985  0.053302      6.000000
 -0.211259 -0.121971  0.000000      6.000000
 -0.176050 -0.101642  0.005922      6.000000
 -0.140840 -0.081314  0.011845      6.000000
  0.000000  0.040657  0.047380      6.000000
  0.035210  0.060985  0.053302     12.000000
  0.070420  0.081314  0.059225     12.000000
 -0.246469 -0.101642  0.005922     12.000000
 -0.211259 -0.081314  0.011845     12.000000
 -0.176050 -0.060985  0.017767     12.000000
  0.000000  0.081314  0.059225      6.000000
  0.035210  0.101642  0.065147     12.000000
 -0.281679 -0.081314  0.011845     12.000000
 -0.246469 -0.060985  0.017767     12.000000
 -0.211259 -0.040657  0.023690     12.000000
  0.000000  0.121971  0.071070      6.000000
 -0.316889 -0.060985  0.017767     12.000000
 -0.281679 -0.040657  0.023690     12.000000
 -0.246469 -0.020328  0.029612      6.000000
  0.000000 -0.243941 -0.035535      6.000000
  0.035210 -0.223613 -0.029612     12.000000
  0.000000 -0.203285 -0.023690      6.000000
  0.000000  0.000000  0.053302      2.000000
  0.035210  0.020328  0.059225      6.000000
  0.070420  0.040657  0.065147      6.000000
 -0.246469 -0.142299  0.011845      6.000000
 -0.211259 -0.121971  0.017767      6.000000
 -0.000000  0.040657  0.065147      6.000000
  0.035210  0.060985  0.071070     12.000000
 -0.281679 -0.121971  0.017767     12.000000
 -0.246469 -0.101642  0.023690     12.000000
  0.000000  0.081314  0.076992      6.000000
 -0.316889 -0.101642  0.023690     12.000000
 -0.281679 -0.081314  0.029612      6.000000
  0.000000 -0.284598 -0.029612      6.000000
  0.000000  0.000000  0.071070      2.000000
  0.035210  0.020328  0.076992      6.000000
 -0.281679 -0.162628  0.023690      6.000000
  0.000000  0.040657  0.082915      6.000000
 -0.316889 -0.142299  0.029612      6.000000
 -0.000000 -0.000000  0.088837      1.000000
 
 
 Subroutine IBZKPT_HF returns following result:
 ==============================================
 
 Found   1000 k-points in 1st BZ
 the following   1000 k-points will be used (e.g. in the exchange kernel)
 Following reciprocal coordinates:   # in IRBZ
  0.000000  0.000000  0.000000    0.00100000   1 t-inv F
  0.100000  0.000000  0.000000    0.00100000   2 t-inv F
  0.200000  0.000000  0.000000    0.00100000   3 t-inv F
  0.300000  0.000000  0.000000    0.00100000   4 t-inv F
  0.400000  0.000000  0.000000    0.00100000   5 t-inv F
  0.500000  0.000000  0.000000    0.00100000   6 t-inv F
  0.100000  0.100000  0.000000    0.00100000   7 t-inv F
  0.200000  0.100000  0.000000    0.00100000   8 t-inv F
  0.300000  0.100000  0.000000    0.00100000   9 t-inv F
  0.400000  0.100000  0.000000    0.00100000  10 t-inv F
  0.500000  0.100000  0.000000    0.00100000  11 t-inv F
 -0.400000  0.100000 -0.000000    0.00100000  12 t-inv F
 -0.300000  0.100000 -0.000000    0.00100000  13 t-inv F
 -0.200000  0.100000 -0.000000    0.00100000  14 t-inv F
 -0.100000  0.100000  0.000000    0.00100000  15 t-inv F
  0.200000  0.200000  0.000000    0.00100000  16 t-inv F
  0.300000  0.200000  0.000000    0.00100000  17 t-inv F
  0.400000  0.200000  0.000000    0.00100000  18 t-inv F
  0.500000  0.200000 -0.000000    0.00100000  19 t-inv F
 -0.400000  0.200000 -0.000000    0.00100000  20 t-inv F
 -0.300000  0.200000 -0.000000    0.00100000  21 t-inv F
 -0.200000  0.200000  0.000000    0.00100000  22 t-inv F
  0.300000  0.300000  0.000000    0.00100000  23 t-inv F
  0.400000  0.300000  0.000000    0.00100000  24 t-inv F
  0.500000  0.300000  0.000000    0.00100000  25 t-inv F
 -0.400000  0.300000  0.000000    0.00100000  26 t-inv F
 -0.300000  0.300000  0.000000    0.00100000  27 t-inv F
  0.400000  0.400000  0.000000    0.00100000  28 t-inv F
  0.500000  0.400000 -0.000000    0.00100000  29 t-inv F
 -0.400000  0.400000  0.000000    0.00100000  30 t-inv F
  0.500000  0.500000  0.000000    0.00100000  31 t-inv F
  0.100000  0.100000  0.100000    0.00100000  32 t-inv F
  0.200000  0.100000  0.100000    0.00100000  33 t-inv F
  0.300000  0.100000  0.100000    0.00100000  34 t-inv F
  0.400000  0.100000  0.100000    0.00100000  35 t-inv F
  0.500000  0.100000  0.100000    0.00100000  36 t-inv F
 -0.400000  0.100000  0.100000    0.00100000  37 t-inv F
 -0.300000  0.100000  0.100000    0.00100000  38 t-inv F
 -0.200000  0.100000  0.100000    0.00100000  39 t-inv F
 -0.100000  0.100000  0.100000    0.00100000  40 t-inv F
  0.200000  0.200000  0.100000    0.00100000  41 t-inv F
  0.300000  0.200000  0.100000    0.00100000  42 t-inv F
  0.400000  0.200000  0.100000    0.00100000  43 t-inv F
  0.500000  0.200000  0.100000    0.00100000  44 t-inv F
 -0.400000  0.200000  0.100000    0.00100000  45 t-inv F
 -0.300000  0.200000  0.100000    0.00100000  46 t-inv F
 -0.200000  0.200000  0.100000    0.00100000  47 t-inv F
 -0.100000  0.200000  0.100000    0.00100000  48 t-inv F
  0.300000  0.300000  0.100000    0.00100000  49 t-inv F
  0.400000  0.300000  0.100000    0.00100000  50 t-inv F
  0.500000  0.300000  0.100000    0.00100000  51 t-inv F
 -0.400000  0.300000  0.100000    0.00100000  52 t-inv F
 -0.300000  0.300000  0.100000    0.00100000  53 t-inv F
 -0.200000  0.300000  0.100000    0.00100000  54 t-inv F
 -0.100000  0.300000  0.100000    0.00100000  55 t-inv F
  0.400000  0.400000  0.100000    0.00100000  56 t-inv F
  0.500000  0.400000  0.100000    0.00100000  57 t-inv F
 -0.400000  0.400000  0.100000    0.00100000  58 t-inv F
 -0.300000  0.400000  0.100000    0.00100000  59 t-inv F
 -0.200000  0.400000  0.100000    0.00100000  60 t-inv F
 -0.100000  0.400000  0.100000    0.00100000  61 t-inv F
  0.500000  0.500000  0.100000    0.00100000  62 t-inv F
 -0.400000  0.500000  0.100000    0.00100000  63 t-inv F
 -0.300000  0.500000  0.100000    0.00100000  64 t-inv F
 -0.200000  0.500000  0.100000    0.00100000  65 t-inv F
 -0.100000  0.500000  0.100000    0.00100000  66 t-inv F
 -0.400000 -0.400000  0.100000    0.00100000  67 t-inv F
 -0.300000 -0.400000  0.100000    0.00100000  68 t-inv F
 -0.200000 -0.400000  0.100000    0.00100000  69 t-inv F
 -0.300000 -0.300000  0.100000    0.00100000  70 t-inv F
 -0.200000 -0.300000  0.100000    0.00100000  71 t-inv F
 -0.200000 -0.200000  0.100000    0.00100000  72 t-inv F
  0.200000  0.200000  0.200000    0.00100000  73 t-inv F
  0.300000  0.200000  0.200000    0.00100000  74 t-inv F
  0.400000  0.200000  0.200000    0.00100000  75 t-inv F
  0.500000  0.200000  0.200000    0.00100000  76 t-inv F
 -0.400000  0.200000  0.200000    0.00100000  77 t-inv F
 -0.300000  0.200000  0.200000    0.00100000  78 t-inv F
 -0.200000  0.200000  0.200000    0.00100000  79 t-inv F
  0.300000  0.300000  0.200000    0.00100000  80 t-inv F
  0.400000  0.300000  0.200000    0.00100000  81 t-inv F
  0.500000  0.300000  0.200000    0.00100000  82 t-inv F
 -0.400000  0.300000  0.200000    0.00100000  83 t-inv F
 -0.300000  0.300000  0.200000    0.00100000  84 t-inv F
 -0.200000  0.300000  0.200000    0.00100000  85 t-inv F
  0.400000  0.400000  0.200000    0.00100000  86 t-inv F
  0.500000  0.400000  0.200000    0.00100000  87 t-inv F
 -0.400000  0.400000  0.200000    0.00100000  88 t-inv F
 -0.300000  0.400000  0.200000    0.00100000  89 t-inv F
 -0.200000  0.400000  0.200000    0.00100000  90 t-inv F
  0.500000  0.500000  0.200000    0.00100000  91 t-inv F
 -0.400000  0.500000  0.200000    0.00100000  92 t-inv F
 -0.300000  0.500000  0.200000    0.00100000  93 t-inv F
 -0.200000  0.500000  0.200000    0.00100000  94 t-inv F
 -0.400000 -0.400000  0.200000    0.00100000  95 t-inv F
 -0.300000 -0.400000  0.200000    0.00100000  96 t-inv F
 -0.300000 -0.300000  0.200000    0.00100000  97 t-inv F
  0.300000  0.300000  0.300000    0.00100000  98 t-inv F
  0.400000  0.300000  0.300000    0.00100000  99 t-inv F
  0.500000  0.300000  0.300000    0.00100000 100 t-inv F
 -0.400000  0.300000  0.300000    0.00100000 101 t-inv F
 -0.300000  0.300000  0.300000    0.00100000 102 t-inv F
  0.400000  0.400000  0.300000    0.00100000 103 t-inv F
  0.500000  0.400000  0.300000    0.00100000 104 t-inv F
 -0.400000  0.400000  0.300000    0.00100000 105 t-inv F
 -0.300000  0.400000  0.300000    0.00100000 106 t-inv F
  0.500000  0.500000  0.300000    0.00100000 107 t-inv F
 -0.400000  0.500000  0.300000    0.00100000 108 t-inv F
 -0.300000  0.500000  0.300000    0.00100000 109 t-inv F
 -0.400000 -0.400000  0.300000    0.00100000 110 t-inv F
  0.400000  0.400000  0.400000    0.00100000 111 t-inv F
  0.500000  0.400000  0.400000    0.00100000 112 t-inv F
 -0.400000  0.400000  0.400000    0.00100000 113 t-inv F
  0.500000  0.500000  0.400000    0.00100000 114 t-inv F
 -0.400000  0.500000  0.400000    0.00100000 115 t-inv F
  0.500000  0.500000  0.500000    0.00100000 116 t-inv F
 -0.100000 -0.000000 -0.000000    0.00100000   2 t-inv F
  0.000000  0.100000  0.000000    0.00100000   2 t-inv F
 -0.000000 -0.100000 -0.000000    0.00100000   2 t-inv F
  0.000000  0.000000  0.100000    0.00100000   2 t-inv F
 -0.000000 -0.000000 -0.100000    0.00100000   2 t-inv F
 -0.200000 -0.000000 -0.000000    0.00100000   3 t-inv F
  0.000000  0.200000  0.000000    0.00100000   3 t-inv F
 -0.000000 -0.200000 -0.000000    0.00100000   3 t-inv F
  0.000000  0.000000  0.200000    0.00100000   3 t-inv F
 -0.000000 -0.000000 -0.200000    0.00100000   3 t-inv F
 -0.300000 -0.000000 -0.000000    0.00100000   4 t-inv F
  0.000000  0.300000  0.000000    0.00100000   4 t-inv F
 -0.000000 -0.300000 -0.000000    0.00100000   4 t-inv F
  0.000000  0.000000  0.300000    0.00100000   4 t-inv F
 -0.000000 -0.000000 -0.300000    0.00100000   4 t-inv F
 -0.400000 -0.000000 -0.000000    0.00100000   5 t-inv F
  0.000000  0.400000  0.000000    0.00100000   5 t-inv F
 -0.000000 -0.400000 -0.000000    0.00100000   5 t-inv F
  0.000000  0.000000  0.400000    0.00100000   5 t-inv F
 -0.000000 -0.000000 -0.400000    0.00100000   5 t-inv F
  0.000000  0.500000  0.000000    0.00100000   6 t-inv F
  0.000000  0.000000  0.500000    0.00100000   6 t-inv F
 -0.100000 -0.100000 -0.000000    0.00100000   7 t-inv F
 -0.100000 -0.000000 -0.100000    0.00100000   7 t-inv F
  0.100000  0.000000  0.100000    0.00100000   7 t-inv F
  0.000000  0.100000  0.100000    0.00100000   7 t-inv F
 -0.000000 -0.100000 -0.100000    0.00100000   7 t-inv F
 -0.200000 -0.100000 -0.000000    0.00100000   8 t-inv F
 -0.200000 -0.000000 -0.100000    0.00100000   8 t-inv F
  0.200000  0.000000  0.100000    0.00100000   8 t-inv F
  0.000000  0.200000  0.100000    0.00100000   8 t-inv F
 -0.000000 -0.200000 -0.100000    0.00100000   8 t-inv F
 -0.100000 -0.200000 -0.000000    0.00100000   8 t-inv F
  0.100000  0.200000  0.000000    0.00100000   8 t-inv F
  0.100000  0.000000  0.200000    0.00100000   8 t-inv F
 -0.100000 -0.000000 -0.200000    0.00100000   8 t-inv F
 -0.000000 -0.100000 -0.200000    0.00100000   8 t-inv F
  0.000000  0.100000  0.200000    0.00100000   8 t-inv F
 -0.300000 -0.100000 -0.000000    0.00100000   9 t-inv F
 -0.300000 -0.000000 -0.100000    0.00100000   9 t-inv F
  0.300000  0.000000  0.100000    0.00100000   9 t-inv F
  0.000000  0.300000  0.100000    0.00100000   9 t-inv F
 -0.000000 -0.300000 -0.100000    0.00100000   9 t-inv F
 -0.100000 -0.300000 -0.000000    0.00100000   9 t-inv F
  0.100000  0.300000  0.000000    0.00100000   9 t-inv F
  0.100000  0.000000  0.300000    0.00100000   9 t-inv F
 -0.100000 -0.000000 -0.300000    0.00100000   9 t-inv F
 -0.000000 -0.100000 -0.300000    0.00100000   9 t-inv F
  0.000000  0.100000  0.300000    0.00100000   9 t-inv F
 -0.400000 -0.100000 -0.000000    0.00100000  10 t-inv F
 -0.400000 -0.000000 -0.100000    0.00100000  10 t-inv F
  0.400000  0.000000  0.100000    0.00100000  10 t-inv F
  0.000000  0.400000  0.100000    0.00100000  10 t-inv F
 -0.000000 -0.400000 -0.100000    0.00100000  10 t-inv F
 -0.100000 -0.400000 -0.000000    0.00100000  10 t-inv F
  0.100000  0.400000  0.000000    0.00100000  10 t-inv F
  0.100000  0.000000  0.400000    0.00100000  10 t-inv F
 -0.100000 -0.000000 -0.400000    0.00100000  10 t-inv F
 -0.000000 -0.100000 -0.400000    0.00100000  10 t-inv F
  0.000000  0.100000  0.400000    0.00100000  10 t-inv F
 -0.500000 -0.100000 -0.000000    0.00100000  11 t-inv F
 -0.500000 -0.000000 -0.100000    0.00100000  11 t-inv F
  0.500000  0.000000  0.100000    0.00100000  11 t-inv F
  0.000000  0.500000  0.100000    0.00100000  11 t-inv F
 -0.000000 -0.500000 -0.100000    0.00100000  11 t-inv F
 -0.100000 -0.500000 -0.000000    0.00100000  11 t-inv F
  0.100000  0.500000  0.000000    0.00100000  11 t-inv F
  0.100000  0.000000  0.500000    0.00100000  11 t-inv F
 -0.100000 -0.000000 -0.500000    0.00100000  11 t-inv F
 -0.000000 -0.100000 -0.500000    0.00100000  11 t-inv F
  0.000000  0.100000  0.500000    0.00100000  11 t-inv F
  0.400000 -0.100000  0.000000    0.00100000  12 t-inv F
  0.400000  0.000000 -0.100000    0.00100000  12 t-inv F
 -0.400000 -0.000000  0.100000    0.00100000  12 t-inv F
 -0.000000 -0.400000  0.100000    0.00100000  12 t-inv F
  0.000000  0.400000 -0.100000    0.00100000  12 t-inv F
 -0.100000  0.400000  0.000000    0.00100000  12 t-inv F
  0.100000 -0.400000 -0.000000    0.00100000  12 t-inv F
  0.100000 -0.000000 -0.400000    0.00100000  12 t-inv F
 -0.100000  0.000000  0.400000    0.00100000  12 t-inv F
  0.000000 -0.100000  0.400000    0.00100000  12 t-inv F
 -0.000000  0.100000 -0.400000    0.00100000  12 t-inv F
  0.300000 -0.100000  0.000000    0.00100000  13 t-inv F
  0.300000  0.000000 -0.100000    0.00100000  13 t-inv F
 -0.300000 -0.000000  0.100000    0.00100000  13 t-inv F
 -0.000000 -0.300000  0.100000    0.00100000  13 t-inv F
  0.000000  0.300000 -0.100000    0.00100000  13 t-inv F
 -0.100000  0.300000  0.000000    0.00100000  13 t-inv F
  0.100000 -0.300000 -0.000000    0.00100000  13 t-inv F
  0.100000 -0.000000 -0.300000    0.00100000  13 t-inv F
 -0.100000  0.000000  0.300000    0.00100000  13 t-inv F
  0.000000 -0.100000  0.300000    0.00100000  13 t-inv F
 -0.000000  0.100000 -0.300000    0.00100000  13 t-inv F
  0.200000 -0.100000  0.000000    0.00100000  14 t-inv F
  0.200000  0.000000 -0.100000    0.00100000  14 t-inv F
 -0.200000 -0.000000  0.100000    0.00100000  14 t-inv F
 -0.000000 -0.200000  0.100000    0.00100000  14 t-inv F
  0.000000  0.200000 -0.100000    0.00100000  14 t-inv F
 -0.100000  0.200000  0.000000    0.00100000  14 t-inv F
  0.100000 -0.200000 -0.000000    0.00100000  14 t-inv F
  0.100000 -0.000000 -0.200000    0.00100000  14 t-inv F
 -0.100000  0.000000  0.200000    0.00100000  14 t-inv F
  0.000000 -0.100000  0.200000    0.00100000  14 t-inv F
 -0.000000  0.100000 -0.200000    0.00100000  14 t-inv F
  0.100000 -0.100000 -0.000000    0.00100000  15 t-inv F
  0.100000 -0.000000 -0.100000    0.00100000  15 t-inv F
 -0.100000  0.000000  0.100000    0.00100000  15 t-inv F
  0.000000 -0.100000  0.100000    0.00100000  15 t-inv F
 -0.000000  0.100000 -0.100000    0.00100000  15 t-inv F
 -0.200000 -0.200000 -0.000000    0.00100000  16 t-inv F
 -0.200000 -0.000000 -0.200000    0.00100000  16 t-inv F
  0.200000  0.000000  0.200000    0.00100000  16 t-inv F
  0.000000  0.200000  0.200000    0.00100000  16 t-inv F
 -0.000000 -0.200000 -0.200000    0.00100000  16 t-inv F
 -0.300000 -0.200000 -0.000000    0.00100000  17 t-inv F
 -0.300000 -0.000000 -0.200000    0.00100000  17 t-inv F
  0.300000  0.000000  0.200000    0.00100000  17 t-inv F
  0.000000  0.300000  0.200000    0.00100000  17 t-inv F
 -0.000000 -0.300000 -0.200000    0.00100000  17 t-inv F
 -0.200000 -0.300000 -0.000000    0.00100000  17 t-inv F
  0.200000  0.300000  0.000000    0.00100000  17 t-inv F
  0.200000  0.000000  0.300000    0.00100000  17 t-inv F
 -0.200000 -0.000000 -0.300000    0.00100000  17 t-inv F
 -0.000000 -0.200000 -0.300000    0.00100000  17 t-inv F
  0.000000  0.200000  0.300000    0.00100000  17 t-inv F
 -0.400000 -0.200000 -0.000000    0.00100000  18 t-inv F
 -0.400000 -0.000000 -0.200000    0.00100000  18 t-inv F
  0.400000  0.000000  0.200000    0.00100000  18 t-inv F
  0.000000  0.400000  0.200000    0.00100000  18 t-inv F
 -0.000000 -0.400000 -0.200000    0.00100000  18 t-inv F
 -0.200000 -0.400000 -0.000000    0.00100000  18 t-inv F
  0.200000  0.400000  0.000000    0.00100000  18 t-inv F
  0.200000  0.000000  0.400000    0.00100000  18 t-inv F
 -0.200000 -0.000000 -0.400000    0.00100000  18 t-inv F
 -0.000000 -0.200000 -0.400000    0.00100000  18 t-inv F
  0.000000  0.200000  0.400000    0.00100000  18 t-inv F
 -0.500000 -0.200000  0.000000    0.00100000  19 t-inv F
 -0.500000  0.000000 -0.200000    0.00100000  19 t-inv F
  0.500000 -0.000000  0.200000    0.00100000  19 t-inv F
 -0.000000  0.500000  0.200000    0.00100000  19 t-inv F
  0.000000 -0.500000 -0.200000    0.00100000  19 t-inv F
 -0.200000 -0.500000  0.000000    0.00100000  19 t-inv F
  0.200000  0.500000 -0.000000    0.00100000  19 t-inv F
  0.200000 -0.000000  0.500000    0.00100000  19 t-inv F
 -0.200000  0.000000 -0.500000    0.00100000  19 t-inv F
  0.000000 -0.200000 -0.500000    0.00100000  19 t-inv F
 -0.000000  0.200000  0.500000    0.00100000  19 t-inv F
  0.400000 -0.200000  0.000000    0.00100000  20 t-inv F
  0.400000  0.000000 -0.200000    0.00100000  20 t-inv F
 -0.400000 -0.000000  0.200000    0.00100000  20 t-inv F
 -0.000000 -0.400000  0.200000    0.00100000  20 t-inv F
  0.000000  0.400000 -0.200000    0.00100000  20 t-inv F
 -0.200000  0.400000  0.000000    0.00100000  20 t-inv F
  0.200000 -0.400000 -0.000000    0.00100000  20 t-inv F
  0.200000 -0.000000 -0.400000    0.00100000  20 t-inv F
 -0.200000  0.000000  0.400000    0.00100000  20 t-inv F
  0.000000 -0.200000  0.400000    0.00100000  20 t-inv F
 -0.000000  0.200000 -0.400000    0.00100000  20 t-inv F
  0.300000 -0.200000  0.000000    0.00100000  21 t-inv F
  0.300000  0.000000 -0.200000    0.00100000  21 t-inv F
 -0.300000 -0.000000  0.200000    0.00100000  21 t-inv F
 -0.000000 -0.300000  0.200000    0.00100000  21 t-inv F
  0.000000  0.300000 -0.200000    0.00100000  21 t-inv F
 -0.200000  0.300000  0.000000    0.00100000  21 t-inv F
  0.200000 -0.300000 -0.000000    0.00100000  21 t-inv F
  0.200000 -0.000000 -0.300000    0.00100000  21 t-inv F
 -0.200000  0.000000  0.300000    0.00100000  21 t-inv F
  0.000000 -0.200000  0.300000    0.00100000  21 t-inv F
 -0.000000  0.200000 -0.300000    0.00100000  21 t-inv F
  0.200000 -0.200000 -0.000000    0.00100000  22 t-inv F
  0.200000 -0.000000 -0.200000    0.00100000  22 t-inv F
 -0.200000  0.000000  0.200000    0.00100000  22 t-inv F
  0.000000 -0.200000  0.200000    0.00100000  22 t-inv F
 -0.000000  0.200000 -0.200000    0.00100000  22 t-inv F
 -0.300000 -0.300000 -0.000000    0.00100000  23 t-inv F
 -0.300000 -0.000000 -0.300000    0.00100000  23 t-inv F
  0.300000  0.000000  0.300000    0.00100000  23 t-inv F
  0.000000  0.300000  0.300000    0.00100000  23 t-inv F
 -0.000000 -0.300000 -0.300000    0.00100000  23 t-inv F
 -0.400000 -0.300000 -0.000000    0.00100000  24 t-inv F
 -0.400000 -0.000000 -0.300000    0.00100000  24 t-inv F
  0.400000  0.000000  0.300000    0.00100000  24 t-inv F
  0.000000  0.400000  0.300000    0.00100000  24 t-inv F
 -0.000000 -0.400000 -0.300000    0.00100000  24 t-inv F
 -0.300000 -0.400000 -0.000000    0.00100000  24 t-inv F
  0.300000  0.400000  0.000000    0.00100000  24 t-inv F
  0.300000  0.000000  0.400000    0.00100000  24 t-inv F
 -0.300000 -0.000000 -0.400000    0.00100000  24 t-inv F
 -0.000000 -0.300000 -0.400000    0.00100000  24 t-inv F
  0.000000  0.300000  0.400000    0.00100000  24 t-inv F
 -0.500000 -0.300000 -0.000000    0.00100000  25 t-inv F
 -0.500000 -0.000000 -0.300000    0.00100000  25 t-inv F
  0.500000  0.000000  0.300000    0.00100000  25 t-inv F
  0.000000  0.500000  0.300000    0.00100000  25 t-inv F
 -0.000000 -0.500000 -0.300000    0.00100000  25 t-inv F
 -0.300000 -0.500000 -0.000000    0.00100000  25 t-inv F
  0.300000  0.500000  0.000000    0.00100000  25 t-inv F
  0.300000  0.000000  0.500000    0.00100000  25 t-inv F
 -0.300000 -0.000000 -0.500000    0.00100000  25 t-inv F
 -0.000000 -0.300000 -0.500000    0.00100000  25 t-inv F
  0.000000  0.300000  0.500000    0.00100000  25 t-inv F
  0.400000 -0.300000 -0.000000    0.00100000  26 t-inv F
  0.400000 -0.000000 -0.300000    0.00100000  26 t-inv F
 -0.400000  0.000000  0.300000    0.00100000  26 t-inv F
  0.000000 -0.400000  0.300000    0.00100000  26 t-inv F
 -0.000000  0.400000 -0.300000    0.00100000  26 t-inv F
 -0.300000  0.400000 -0.000000    0.00100000  26 t-inv F
  0.300000 -0.400000  0.000000    0.00100000  26 t-inv F
  0.300000  0.000000 -0.400000    0.00100000  26 t-inv F
 -0.300000 -0.000000  0.400000    0.00100000  26 t-inv F
 -0.000000 -0.300000  0.400000    0.00100000  26 t-inv F
  0.000000  0.300000 -0.400000    0.00100000  26 t-inv F
  0.300000 -0.300000 -0.000000    0.00100000  27 t-inv F
  0.300000 -0.000000 -0.300000    0.00100000  27 t-inv F
 -0.300000  0.000000  0.300000    0.00100000  27 t-inv F
  0.000000 -0.300000  0.300000    0.00100000  27 t-inv F
 -0.000000  0.300000 -0.300000    0.00100000  27 t-inv F
 -0.400000 -0.400000 -0.000000    0.00100000  28 t-inv F
 -0.400000 -0.000000 -0.400000    0.00100000  28 t-inv F
  0.400000  0.000000  0.400000    0.00100000  28 t-inv F
  0.000000  0.400000  0.400000    0.00100000  28 t-inv F
 -0.000000 -0.400000 -0.400000    0.00100000  28 t-inv F
 -0.500000 -0.400000  0.000000    0.00100000  29 t-inv F
 -0.500000  0.000000 -0.400000    0.00100000  29 t-inv F
  0.500000 -0.000000  0.400000    0.00100000  29 t-inv F
 -0.000000  0.500000  0.400000    0.00100000  29 t-inv F
  0.000000 -0.500000 -0.400000    0.00100000  29 t-inv F
 -0.400000 -0.500000  0.000000    0.00100000  29 t-inv F
  0.400000  0.500000 -0.000000    0.00100000  29 t-inv F
  0.400000 -0.000000  0.500000    0.00100000  29 t-inv F
 -0.400000  0.000000 -0.500000    0.00100000  29 t-inv F
  0.000000 -0.400000 -0.500000    0.00100000  29 t-inv F
 -0.000000  0.400000  0.500000    0.00100000  29 t-inv F
  0.400000 -0.400000 -0.000000    0.00100000  30 t-inv F
  0.400000 -0.000000 -0.400000    0.00100000  30 t-inv F
 -0.400000  0.000000  0.400000    0.00100000  30 t-inv F
  0.000000 -0.400000  0.400000    0.00100000  30 t-inv F
 -0.000000  0.400000 -0.400000    0.00100000  30 t-inv F
 -0.500000 -0.000000 -0.500000    0.00100000  31 t-inv F
  0.000000  0.500000  0.500000    0.00100000  31 t-inv F
 -0.100000 -0.100000 -0.100000    0.00100000  32 t-inv F
 -0.200000 -0.100000 -0.100000    0.00100000  33 t-inv F
  0.100000  0.200000  0.100000    0.00100000  33 t-inv F
 -0.100000 -0.200000 -0.100000    0.00100000  33 t-inv F
  0.100000  0.100000  0.200000    0.00100000  33 t-inv F
 -0.100000 -0.100000 -0.200000    0.00100000  33 t-inv F
 -0.300000 -0.100000 -0.100000    0.00100000  34 t-inv F
  0.100000  0.300000  0.100000    0.00100000  34 t-inv F
 -0.100000 -0.300000 -0.100000    0.00100000  34 t-inv F
  0.100000  0.100000  0.300000    0.00100000  34 t-inv F
 -0.100000 -0.100000 -0.300000    0.00100000  34 t-inv F
 -0.400000 -0.100000 -0.100000    0.00100000  35 t-inv F
  0.100000  0.400000  0.100000    0.00100000  35 t-inv F
 -0.100000 -0.400000 -0.100000    0.00100000  35 t-inv F
  0.100000  0.100000  0.400000    0.00100000  35 t-inv F
 -0.100000 -0.100000 -0.400000    0.00100000  35 t-inv F
 -0.500000 -0.100000 -0.100000    0.00100000  36 t-inv F
  0.100000  0.500000  0.100000    0.00100000  36 t-inv F
 -0.100000 -0.500000 -0.100000    0.00100000  36 t-inv F
  0.100000  0.100000  0.500000    0.00100000  36 t-inv F
 -0.100000 -0.100000 -0.500000    0.00100000  36 t-inv F
  0.400000 -0.100000 -0.100000    0.00100000  37 t-inv F
  0.100000 -0.400000  0.100000    0.00100000  37 t-inv F
 -0.100000  0.400000 -0.100000    0.00100000  37 t-inv F
  0.100000  0.100000 -0.400000    0.00100000  37 t-inv F
 -0.100000 -0.100000  0.400000    0.00100000  37 t-inv F
  0.300000 -0.100000 -0.100000    0.00100000  38 t-inv F
  0.100000 -0.300000  0.100000    0.00100000  38 t-inv F
 -0.100000  0.300000 -0.100000    0.00100000  38 t-inv F
  0.100000  0.100000 -0.300000    0.00100000  38 t-inv F
 -0.100000 -0.100000  0.300000    0.00100000  38 t-inv F
  0.200000 -0.100000 -0.100000    0.00100000  39 t-inv F
  0.100000 -0.200000  0.100000    0.00100000  39 t-inv F
 -0.100000  0.200000 -0.100000    0.00100000  39 t-inv F
  0.100000  0.100000 -0.200000    0.00100000  39 t-inv F
 -0.100000 -0.100000  0.200000    0.00100000  39 t-inv F
  0.100000 -0.100000 -0.100000    0.00100000  40 t-inv F
  0.100000 -0.100000  0.100000    0.00100000  40 t-inv F
 -0.100000  0.100000 -0.100000    0.00100000  40 t-inv F
  0.100000  0.100000 -0.100000    0.00100000  40 t-inv F
 -0.100000 -0.100000  0.100000    0.00100000  40 t-inv F
 -0.200000 -0.200000 -0.100000    0.00100000  41 t-inv F
 -0.200000 -0.100000 -0.200000    0.00100000  41 t-inv F
  0.200000  0.100000  0.200000    0.00100000  41 t-inv F
  0.100000  0.200000  0.200000    0.00100000  41 t-inv F
 -0.100000 -0.200000 -0.200000    0.00100000  41 t-inv F
 -0.300000 -0.200000 -0.100000    0.00100000  42 t-inv F
 -0.300000 -0.100000 -0.200000    0.00100000  42 t-inv F
  0.300000  0.100000  0.200000    0.00100000  42 t-inv F
  0.100000  0.300000  0.200000    0.00100000  42 t-inv F
 -0.100000 -0.300000 -0.200000    0.00100000  42 t-inv F
 -0.200000 -0.300000 -0.100000    0.00100000  42 t-inv F
  0.200000  0.300000  0.100000    0.00100000  42 t-inv F
  0.200000  0.100000  0.300000    0.00100000  42 t-inv F
 -0.200000 -0.100000 -0.300000    0.00100000  42 t-inv F
 -0.100000 -0.200000 -0.300000    0.00100000  42 t-inv F
  0.100000  0.200000  0.300000    0.00100000  42 t-inv F
 -0.400000 -0.200000 -0.100000    0.00100000  43 t-inv F
 -0.400000 -0.100000 -0.200000    0.00100000  43 t-inv F
  0.400000  0.100000  0.200000    0.00100000  43 t-inv F
  0.100000  0.400000  0.200000    0.00100000  43 t-inv F
 -0.100000 -0.400000 -0.200000    0.00100000  43 t-inv F
 -0.200000 -0.400000 -0.100000    0.00100000  43 t-inv F
  0.200000  0.400000  0.100000    0.00100000  43 t-inv F
  0.200000  0.100000  0.400000    0.00100000  43 t-inv F
 -0.200000 -0.100000 -0.400000    0.00100000  43 t-inv F
 -0.100000 -0.200000 -0.400000    0.00100000  43 t-inv F
  0.100000  0.200000  0.400000    0.00100000  43 t-inv F
 -0.500000 -0.200000 -0.100000    0.00100000  44 t-inv F
 -0.500000 -0.100000 -0.200000    0.00100000  44 t-inv F
  0.500000  0.100000  0.200000    0.00100000  44 t-inv F
  0.100000  0.500000  0.200000    0.00100000  44 t-inv F
 -0.100000 -0.500000 -0.200000    0.00100000  44 t-inv F
 -0.200000 -0.500000 -0.100000    0.00100000  44 t-inv F
  0.200000  0.500000  0.100000    0.00100000  44 t-inv F
  0.200000  0.100000  0.500000    0.00100000  44 t-inv F
 -0.200000 -0.100000 -0.500000    0.00100000  44 t-inv F
 -0.100000 -0.200000 -0.500000    0.00100000  44 t-inv F
  0.100000  0.200000  0.500000    0.00100000  44 t-inv F
  0.400000 -0.200000 -0.100000    0.00100000  45 t-inv F
  0.400000 -0.100000 -0.200000    0.00100000  45 t-inv F
 -0.400000  0.100000  0.200000    0.00100000  45 t-inv F
  0.100000 -0.400000  0.200000    0.00100000  45 t-inv F
 -0.100000  0.400000 -0.200000    0.00100000  45 t-inv F
 -0.200000  0.400000 -0.100000    0.00100000  45 t-inv F
  0.200000 -0.400000  0.100000    0.00100000  45 t-inv F
  0.200000  0.100000 -0.400000    0.00100000  45 t-inv F
 -0.200000 -0.100000  0.400000    0.00100000  45 t-inv F
 -0.100000 -0.200000  0.400000    0.00100000  45 t-inv F
  0.100000  0.200000 -0.400000    0.00100000  45 t-inv F
  0.300000 -0.200000 -0.100000    0.00100000  46 t-inv F
  0.300000 -0.100000 -0.200000    0.00100000  46 t-inv F
 -0.300000  0.100000  0.200000    0.00100000  46 t-inv F
  0.100000 -0.300000  0.200000    0.00100000  46 t-inv F
 -0.100000  0.300000 -0.200000    0.00100000  46 t-inv F
 -0.200000  0.300000 -0.100000    0.00100000  46 t-inv F
  0.200000 -0.300000  0.100000    0.00100000  46 t-inv F
  0.200000  0.100000 -0.300000    0.00100000  46 t-inv F
 -0.200000 -0.100000  0.300000    0.00100000  46 t-inv F
 -0.100000 -0.200000  0.300000    0.00100000  46 t-inv F
  0.100000  0.200000 -0.300000    0.00100000  46 t-inv F
  0.200000 -0.200000 -0.100000    0.00100000  47 t-inv F
  0.200000 -0.100000 -0.200000    0.00100000  47 t-inv F
 -0.200000  0.100000  0.200000    0.00100000  47 t-inv F
  0.100000 -0.200000  0.200000    0.00100000  47 t-inv F
 -0.100000  0.200000 -0.200000    0.00100000  47 t-inv F
 -0.200000  0.200000 -0.100000    0.00100000  47 t-inv F
  0.200000 -0.200000  0.100000    0.00100000  47 t-inv F
  0.200000  0.100000 -0.200000    0.00100000  47 t-inv F
 -0.200000 -0.100000  0.200000    0.00100000  47 t-inv F
 -0.100000 -0.200000  0.200000    0.00100000  47 t-inv F
  0.100000  0.200000 -0.200000    0.00100000  47 t-inv F
  0.100000 -0.200000 -0.100000    0.00100000  48 t-inv F
  0.100000 -0.100000 -0.200000    0.00100000  48 t-inv F
 -0.100000  0.100000  0.200000    0.00100000  48 t-inv F
  0.100000 -0.100000  0.200000    0.00100000  48 t-inv F
 -0.100000  0.100000 -0.200000    0.00100000  48 t-inv F
 -0.200000  0.100000 -0.100000    0.00100000  48 t-inv F
  0.200000 -0.100000  0.100000    0.00100000  48 t-inv F
  0.200000  0.100000 -0.100000    0.00100000  48 t-inv F
 -0.200000 -0.100000  0.100000    0.00100000  48 t-inv F
 -0.100000 -0.200000  0.100000    0.00100000  48 t-inv F
  0.100000  0.200000 -0.100000    0.00100000  48 t-inv F
 -0.300000 -0.300000 -0.100000    0.00100000  49 t-inv F
 -0.300000 -0.100000 -0.300000    0.00100000  49 t-inv F
  0.300000  0.100000  0.300000    0.00100000  49 t-inv F
  0.100000  0.300000  0.300000    0.00100000  49 t-inv F
 -0.100000 -0.300000 -0.300000    0.00100000  49 t-inv F
 -0.400000 -0.300000 -0.100000    0.00100000  50 t-inv F
 -0.400000 -0.100000 -0.300000    0.00100000  50 t-inv F
  0.400000  0.100000  0.300000    0.00100000  50 t-inv F
  0.100000  0.400000  0.300000    0.00100000  50 t-inv F
 -0.100000 -0.400000 -0.300000    0.00100000  50 t-inv F
 -0.300000 -0.400000 -0.100000    0.00100000  50 t-inv F
  0.300000  0.400000  0.100000    0.00100000  50 t-inv F
  0.300000  0.100000  0.400000    0.00100000  50 t-inv F
 -0.300000 -0.100000 -0.400000    0.00100000  50 t-inv F
 -0.100000 -0.300000 -0.400000    0.00100000  50 t-inv F
  0.100000  0.300000  0.400000    0.00100000  50 t-inv F
 -0.500000 -0.300000 -0.100000    0.00100000  51 t-inv F
 -0.500000 -0.100000 -0.300000    0.00100000  51 t-inv F
  0.500000  0.100000  0.300000    0.00100000  51 t-inv F
  0.100000  0.500000  0.300000    0.00100000  51 t-inv F
 -0.100000 -0.500000 -0.300000    0.00100000  51 t-inv F
 -0.300000 -0.500000 -0.100000    0.00100000  51 t-inv F
  0.300000  0.500000  0.100000    0.00100000  51 t-inv F
  0.300000  0.100000  0.500000    0.00100000  51 t-inv F
 -0.300000 -0.100000 -0.500000    0.00100000  51 t-inv F
 -0.100000 -0.300000 -0.500000    0.00100000  51 t-inv F
  0.100000  0.300000  0.500000    0.00100000  51 t-inv F
  0.400000 -0.300000 -0.100000    0.00100000  52 t-inv F
  0.400000 -0.100000 -0.300000    0.00100000  52 t-inv F
 -0.400000  0.100000  0.300000    0.00100000  52 t-inv F
  0.100000 -0.400000  0.300000    0.00100000  52 t-inv F
 -0.100000  0.400000 -0.300000    0.00100000  52 t-inv F
 -0.300000  0.400000 -0.100000    0.00100000  52 t-inv F
  0.300000 -0.400000  0.100000    0.00100000  52 t-inv F
  0.300000  0.100000 -0.400000    0.00100000  52 t-inv F
 -0.300000 -0.100000  0.400000    0.00100000  52 t-inv F
 -0.100000 -0.300000  0.400000    0.00100000  52 t-inv F
  0.100000  0.300000 -0.400000    0.00100000  52 t-inv F
  0.300000 -0.300000 -0.100000    0.00100000  53 t-inv F
  0.300000 -0.100000 -0.300000    0.00100000  53 t-inv F
 -0.300000  0.100000  0.300000    0.00100000  53 t-inv F
  0.100000 -0.300000  0.300000    0.00100000  53 t-inv F
 -0.100000  0.300000 -0.300000    0.00100000  53 t-inv F
 -0.300000  0.300000 -0.100000    0.00100000  53 t-inv F
  0.300000 -0.300000  0.100000    0.00100000  53 t-inv F
  0.300000  0.100000 -0.300000    0.00100000  53 t-inv F
 -0.300000 -0.100000  0.300000    0.00100000  53 t-inv F
 -0.100000 -0.300000  0.300000    0.00100000  53 t-inv F
  0.100000  0.300000 -0.300000    0.00100000  53 t-inv F
  0.200000 -0.300000 -0.100000    0.00100000  54 t-inv F
  0.200000 -0.100000 -0.300000    0.00100000  54 t-inv F
 -0.200000  0.100000  0.300000    0.00100000  54 t-inv F
  0.100000 -0.200000  0.300000    0.00100000  54 t-inv F
 -0.100000  0.200000 -0.300000    0.00100000  54 t-inv F
 -0.300000  0.200000 -0.100000    0.00100000  54 t-inv F
  0.300000 -0.200000  0.100000    0.00100000  54 t-inv F
  0.300000  0.100000 -0.200000    0.00100000  54 t-inv F
 -0.300000 -0.100000  0.200000    0.00100000  54 t-inv F
 -0.100000 -0.300000  0.200000    0.00100000  54 t-inv F
  0.100000  0.300000 -0.200000    0.00100000  54 t-inv F
  0.100000 -0.300000 -0.100000    0.00100000  55 t-inv F
  0.100000 -0.100000 -0.300000    0.00100000  55 t-inv F
 -0.100000  0.100000  0.300000    0.00100000  55 t-inv F
  0.100000 -0.100000  0.300000    0.00100000  55 t-inv F
 -0.100000  0.100000 -0.300000    0.00100000  55 t-inv F
 -0.300000  0.100000 -0.100000    0.00100000  55 t-inv F
  0.300000 -0.100000  0.100000    0.00100000  55 t-inv F
  0.300000  0.100000 -0.100000    0.00100000  55 t-inv F
 -0.300000 -0.100000  0.100000    0.00100000  55 t-inv F
 -0.100000 -0.300000  0.100000    0.00100000  55 t-inv F
  0.100000  0.300000 -0.100000    0.00100000  55 t-inv F
 -0.400000 -0.400000 -0.100000    0.00100000  56 t-inv F
 -0.400000 -0.100000 -0.400000    0.00100000  56 t-inv F
  0.400000  0.100000  0.400000    0.00100000  56 t-inv F
  0.100000  0.400000  0.400000    0.00100000  56 t-inv F
 -0.100000 -0.400000 -0.400000    0.00100000  56 t-inv F
 -0.500000 -0.400000 -0.100000    0.00100000  57 t-inv F
 -0.500000 -0.100000 -0.400000    0.00100000  57 t-inv F
  0.500000  0.100000  0.400000    0.00100000  57 t-inv F
  0.100000  0.500000  0.400000    0.00100000  57 t-inv F
 -0.100000 -0.500000 -0.400000    0.00100000  57 t-inv F
 -0.400000 -0.500000 -0.100000    0.00100000  57 t-inv F
  0.400000  0.500000  0.100000    0.00100000  57 t-inv F
  0.400000  0.100000  0.500000    0.00100000  57 t-inv F
 -0.400000 -0.100000 -0.500000    0.00100000  57 t-inv F
 -0.100000 -0.400000 -0.500000    0.00100000  57 t-inv F
  0.100000  0.400000  0.500000    0.00100000  57 t-inv F
  0.400000 -0.400000 -0.100000    0.00100000  58 t-inv F
  0.400000 -0.100000 -0.400000    0.00100000  58 t-inv F
 -0.400000  0.100000  0.400000    0.00100000  58 t-inv F
  0.100000 -0.400000  0.400000    0.00100000  58 t-inv F
 -0.100000  0.400000 -0.400000    0.00100000  58 t-inv F
 -0.400000  0.400000 -0.100000    0.00100000  58 t-inv F
  0.400000 -0.400000  0.100000    0.00100000  58 t-inv F
  0.400000  0.100000 -0.400000    0.00100000  58 t-inv F
 -0.400000 -0.100000  0.400000    0.00100000  58 t-inv F
 -0.100000 -0.400000  0.400000    0.00100000  58 t-inv F
  0.100000  0.400000 -0.400000    0.00100000  58 t-inv F
  0.300000 -0.400000 -0.100000    0.00100000  59 t-inv F
  0.300000 -0.100000 -0.400000    0.00100000  59 t-inv F
 -0.300000  0.100000  0.400000    0.00100000  59 t-inv F
  0.100000 -0.300000  0.400000    0.00100000  59 t-inv F
 -0.100000  0.300000 -0.400000    0.00100000  59 t-inv F
 -0.400000  0.300000 -0.100000    0.00100000  59 t-inv F
  0.400000 -0.300000  0.100000    0.00100000  59 t-inv F
  0.400000  0.100000 -0.300000    0.00100000  59 t-inv F
 -0.400000 -0.100000  0.300000    0.00100000  59 t-inv F
 -0.100000 -0.400000  0.300000    0.00100000  59 t-inv F
  0.100000  0.400000 -0.300000    0.00100000  59 t-inv F
  0.200000 -0.400000 -0.100000    0.00100000  60 t-inv F
  0.200000 -0.100000 -0.400000    0.00100000  60 t-inv F
 -0.200000  0.100000  0.400000    0.00100000  60 t-inv F
  0.100000 -0.200000  0.400000    0.00100000  60 t-inv F
 -0.100000  0.200000 -0.400000    0.00100000  60 t-inv F
 -0.400000  0.200000 -0.100000    0.00100000  60 t-inv F
  0.400000 -0.200000  0.100000    0.00100000  60 t-inv F
  0.400000  0.100000 -0.200000    0.00100000  60 t-inv F
 -0.400000 -0.100000  0.200000    0.00100000  60 t-inv F
 -0.100000 -0.400000  0.200000    0.00100000  60 t-inv F
  0.100000  0.400000 -0.200000    0.00100000  60 t-inv F
  0.100000 -0.400000 -0.100000    0.00100000  61 t-inv F
  0.100000 -0.100000 -0.400000    0.00100000  61 t-inv F
 -0.100000  0.100000  0.400000    0.00100000  61 t-inv F
  0.100000 -0.100000  0.400000    0.00100000  61 t-inv F
 -0.100000  0.100000 -0.400000    0.00100000  61 t-inv F
 -0.400000  0.100000 -0.100000    0.00100000  61 t-inv F
  0.400000 -0.100000  0.100000    0.00100000  61 t-inv F
  0.400000  0.100000 -0.100000    0.00100000  61 t-inv F
 -0.400000 -0.100000  0.100000    0.00100000  61 t-inv F
 -0.100000 -0.400000  0.100000    0.00100000  61 t-inv F
  0.100000  0.400000 -0.100000    0.00100000  61 t-inv F
 -0.500000 -0.500000 -0.100000    0.00100000  62 t-inv F
 -0.500000 -0.100000 -0.500000    0.00100000  62 t-inv F
  0.500000  0.100000  0.500000    0.00100000  62 t-inv F
  0.100000  0.500000  0.500000    0.00100000  62 t-inv F
 -0.100000 -0.500000 -0.500000    0.00100000  62 t-inv F
  0.400000 -0.500000 -0.100000    0.00100000  63 t-inv F
  0.400000 -0.100000 -0.500000    0.00100000  63 t-inv F
 -0.400000  0.100000  0.500000    0.00100000  63 t-inv F
  0.100000 -0.400000  0.500000    0.00100000  63 t-inv F
 -0.100000  0.400000 -0.500000    0.00100000  63 t-inv F
 -0.500000  0.400000 -0.100000    0.00100000  63 t-inv F
  0.500000 -0.400000  0.100000    0.00100000  63 t-inv F
  0.500000  0.100000 -0.400000    0.00100000  63 t-inv F
 -0.500000 -0.100000  0.400000    0.00100000  63 t-inv F
 -0.100000 -0.500000  0.400000    0.00100000  63 t-inv F
  0.100000  0.500000 -0.400000    0.00100000  63 t-inv F
  0.300000 -0.500000 -0.100000    0.00100000  64 t-inv F
  0.300000 -0.100000 -0.500000    0.00100000  64 t-inv F
 -0.300000  0.100000  0.500000    0.00100000  64 t-inv F
  0.100000 -0.300000  0.500000    0.00100000  64 t-inv F
 -0.100000  0.300000 -0.500000    0.00100000  64 t-inv F
 -0.500000  0.300000 -0.100000    0.00100000  64 t-inv F
  0.500000 -0.300000  0.100000    0.00100000  64 t-inv F
  0.500000  0.100000 -0.300000    0.00100000  64 t-inv F
 -0.500000 -0.100000  0.300000    0.00100000  64 t-inv F
 -0.100000 -0.500000  0.300000    0.00100000  64 t-inv F
  0.100000  0.500000 -0.300000    0.00100000  64 t-inv F
  0.200000 -0.500000 -0.100000    0.00100000  65 t-inv F
  0.200000 -0.100000 -0.500000    0.00100000  65 t-inv F
 -0.200000  0.100000  0.500000    0.00100000  65 t-inv F
  0.100000 -0.200000  0.500000    0.00100000  65 t-inv F
 -0.100000  0.200000 -0.500000    0.00100000  65 t-inv F
 -0.500000  0.200000 -0.100000    0.00100000  65 t-inv F
  0.500000 -0.200000  0.100000    0.00100000  65 t-inv F
  0.500000  0.100000 -0.200000    0.00100000  65 t-inv F
 -0.500000 -0.100000  0.200000    0.00100000  65 t-inv F
 -0.100000 -0.500000  0.200000    0.00100000  65 t-inv F
  0.100000  0.500000 -0.200000    0.00100000  65 t-inv F
  0.100000 -0.500000 -0.100000    0.00100000  66 t-inv F
  0.100000 -0.100000 -0.500000    0.00100000  66 t-inv F
 -0.100000  0.100000  0.500000    0.00100000  66 t-inv F
 -0.500000  0.100000 -0.100000    0.00100000  66 t-inv F
  0.500000 -0.100000  0.100000    0.00100000  66 t-inv F
  0.400000  0.400000 -0.100000    0.00100000  67 t-inv F
  0.400000 -0.100000  0.400000    0.00100000  67 t-inv F
 -0.400000  0.100000 -0.400000    0.00100000  67 t-inv F
  0.100000 -0.400000 -0.400000    0.00100000  67 t-inv F
 -0.100000  0.400000  0.400000    0.00100000  67 t-inv F
  0.300000  0.400000 -0.100000    0.00100000  68 t-inv F
  0.300000 -0.100000  0.400000    0.00100000  68 t-inv F
 -0.300000  0.100000 -0.400000    0.00100000  68 t-inv F
  0.100000 -0.300000 -0.400000    0.00100000  68 t-inv F
 -0.100000  0.300000  0.400000    0.00100000  68 t-inv F
  0.400000  0.300000 -0.100000    0.00100000  68 t-inv F
 -0.400000 -0.300000  0.100000    0.00100000  68 t-inv F
 -0.400000  0.100000 -0.300000    0.00100000  68 t-inv F
  0.400000 -0.100000  0.300000    0.00100000  68 t-inv F
 -0.100000  0.400000  0.300000    0.00100000  68 t-inv F
  0.100000 -0.400000 -0.300000    0.00100000  68 t-inv F
  0.200000  0.400000 -0.100000    0.00100000  69 t-inv F
  0.200000 -0.100000  0.400000    0.00100000  69 t-inv F
 -0.200000  0.100000 -0.400000    0.00100000  69 t-inv F
  0.100000 -0.200000 -0.400000    0.00100000  69 t-inv F
 -0.100000  0.200000  0.400000    0.00100000  69 t-inv F
  0.400000  0.200000 -0.100000    0.00100000  69 t-inv F
 -0.400000 -0.200000  0.100000    0.00100000  69 t-inv F
 -0.400000  0.100000 -0.200000    0.00100000  69 t-inv F
  0.400000 -0.100000  0.200000    0.00100000  69 t-inv F
 -0.100000  0.400000  0.200000    0.00100000  69 t-inv F
  0.100000 -0.400000 -0.200000    0.00100000  69 t-inv F
  0.300000  0.300000 -0.100000    0.00100000  70 t-inv F
  0.300000 -0.100000  0.300000    0.00100000  70 t-inv F
 -0.300000  0.100000 -0.300000    0.00100000  70 t-inv F
  0.100000 -0.300000 -0.300000    0.00100000  70 t-inv F
 -0.100000  0.300000  0.300000    0.00100000  70 t-inv F
  0.200000  0.300000 -0.100000    0.00100000  71 t-inv F
  0.200000 -0.100000  0.300000    0.00100000  71 t-inv F
 -0.200000  0.100000 -0.300000    0.00100000  71 t-inv F
  0.100000 -0.200000 -0.300000    0.00100000  71 t-inv F
 -0.100000  0.200000  0.300000    0.00100000  71 t-inv F
  0.300000  0.200000 -0.100000    0.00100000  71 t-inv F
 -0.300000 -0.200000  0.100000    0.00100000  71 t-inv F
 -0.300000  0.100000 -0.200000    0.00100000  71 t-inv F
  0.300000 -0.100000  0.200000    0.00100000  71 t-inv F
 -0.100000  0.300000  0.200000    0.00100000  71 t-inv F
  0.100000 -0.300000 -0.200000    0.00100000  71 t-inv F
  0.200000  0.200000 -0.100000    0.00100000  72 t-inv F
  0.200000 -0.100000  0.200000    0.00100000  72 t-inv F
 -0.200000  0.100000 -0.200000    0.00100000  72 t-inv F
  0.100000 -0.200000 -0.200000    0.00100000  72 t-inv F
 -0.100000  0.200000  0.200000    0.00100000  72 t-inv F
 -0.200000 -0.200000 -0.200000    0.00100000  73 t-inv F
 -0.300000 -0.200000 -0.200000    0.00100000  74 t-inv F
  0.200000  0.300000  0.200000    0.00100000  74 t-inv F
 -0.200000 -0.300000 -0.200000    0.00100000  74 t-inv F
  0.200000  0.200000  0.300000    0.00100000  74 t-inv F
 -0.200000 -0.200000 -0.300000    0.00100000  74 t-inv F
 -0.400000 -0.200000 -0.200000    0.00100000  75 t-inv F
  0.200000  0.400000  0.200000    0.00100000  75 t-inv F
 -0.200000 -0.400000 -0.200000    0.00100000  75 t-inv F
  0.200000  0.200000  0.400000    0.00100000  75 t-inv F
 -0.200000 -0.200000 -0.400000    0.00100000  75 t-inv F
 -0.500000 -0.200000 -0.200000    0.00100000  76 t-inv F
  0.200000  0.500000  0.200000    0.00100000  76 t-inv F
 -0.200000 -0.500000 -0.200000    0.00100000  76 t-inv F
  0.200000  0.200000  0.500000    0.00100000  76 t-inv F
 -0.200000 -0.200000 -0.500000    0.00100000  76 t-inv F
  0.400000 -0.200000 -0.200000    0.00100000  77 t-inv F
  0.200000 -0.400000  0.200000    0.00100000  77 t-inv F
 -0.200000  0.400000 -0.200000    0.00100000  77 t-inv F
  0.200000  0.200000 -0.400000    0.00100000  77 t-inv F
 -0.200000 -0.200000  0.400000    0.00100000  77 t-inv F
  0.300000 -0.200000 -0.200000    0.00100000  78 t-inv F
  0.200000 -0.300000  0.200000    0.00100000  78 t-inv F
 -0.200000  0.300000 -0.200000    0.00100000  78 t-inv F
  0.200000  0.200000 -0.300000    0.00100000  78 t-inv F
 -0.200000 -0.200000  0.300000    0.00100000  78 t-inv F
  0.200000 -0.200000 -0.200000    0.00100000  79 t-inv F
  0.200000 -0.200000  0.200000    0.00100000  79 t-inv F
 -0.200000  0.200000 -0.200000    0.00100000  79 t-inv F
  0.200000  0.200000 -0.200000    0.00100000  79 t-inv F
 -0.200000 -0.200000  0.200000    0.00100000  79 t-inv F
 -0.300000 -0.300000 -0.200000    0.00100000  80 t-inv F
 -0.300000 -0.200000 -0.300000    0.00100000  80 t-inv F
  0.300000  0.200000  0.300000    0.00100000  80 t-inv F
  0.200000  0.300000  0.300000    0.00100000  80 t-inv F
 -0.200000 -0.300000 -0.300000    0.00100000  80 t-inv F
 -0.400000 -0.300000 -0.200000    0.00100000  81 t-inv F
 -0.400000 -0.200000 -0.300000    0.00100000  81 t-inv F
  0.400000  0.200000  0.300000    0.00100000  81 t-inv F
  0.200000  0.400000  0.300000    0.00100000  81 t-inv F
 -0.200000 -0.400000 -0.300000    0.00100000  81 t-inv F
 -0.300000 -0.400000 -0.200000    0.00100000  81 t-inv F
  0.300000  0.400000  0.200000    0.00100000  81 t-inv F
  0.300000  0.200000  0.400000    0.00100000  81 t-inv F
 -0.300000 -0.200000 -0.400000    0.00100000  81 t-inv F
 -0.200000 -0.300000 -0.400000    0.00100000  81 t-inv F
  0.200000  0.300000  0.400000    0.00100000  81 t-inv F
 -0.500000 -0.300000 -0.200000    0.00100000  82 t-inv F
 -0.500000 -0.200000 -0.300000    0.00100000  82 t-inv F
  0.500000  0.200000  0.300000    0.00100000  82 t-inv F
  0.200000  0.500000  0.300000    0.00100000  82 t-inv F
 -0.200000 -0.500000 -0.300000    0.00100000  82 t-inv F
 -0.300000 -0.500000 -0.200000    0.00100000  82 t-inv F
  0.300000  0.500000  0.200000    0.00100000  82 t-inv F
  0.300000  0.200000  0.500000    0.00100000  82 t-inv F
 -0.300000 -0.200000 -0.500000    0.00100000  82 t-inv F
 -0.200000 -0.300000 -0.500000    0.00100000  82 t-inv F
  0.200000  0.300000  0.500000    0.00100000  82 t-inv F
  0.400000 -0.300000 -0.200000    0.00100000  83 t-inv F
  0.400000 -0.200000 -0.300000    0.00100000  83 t-inv F
 -0.400000  0.200000  0.300000    0.00100000  83 t-inv F
  0.200000 -0.400000  0.300000    0.00100000  83 t-inv F
 -0.200000  0.400000 -0.300000    0.00100000  83 t-inv F
 -0.300000  0.400000 -0.200000    0.00100000  83 t-inv F
  0.300000 -0.400000  0.200000    0.00100000  83 t-inv F
  0.300000  0.200000 -0.400000    0.00100000  83 t-inv F
 -0.300000 -0.200000  0.400000    0.00100000  83 t-inv F
 -0.200000 -0.300000  0.400000    0.00100000  83 t-inv F
  0.200000  0.300000 -0.400000    0.00100000  83 t-inv F
  0.300000 -0.300000 -0.200000    0.00100000  84 t-inv F
  0.300000 -0.200000 -0.300000    0.00100000  84 t-inv F
 -0.300000  0.200000  0.300000    0.00100000  84 t-inv F
  0.200000 -0.300000  0.300000    0.00100000  84 t-inv F
 -0.200000  0.300000 -0.300000    0.00100000  84 t-inv F
 -0.300000  0.300000 -0.200000    0.00100000  84 t-inv F
  0.300000 -0.300000  0.200000    0.00100000  84 t-inv F
  0.300000  0.200000 -0.300000    0.00100000  84 t-inv F
 -0.300000 -0.200000  0.300000    0.00100000  84 t-inv F
 -0.200000 -0.300000  0.300000    0.00100000  84 t-inv F
  0.200000  0.300000 -0.300000    0.00100000  84 t-inv F
  0.200000 -0.300000 -0.200000    0.00100000  85 t-inv F
  0.200000 -0.200000 -0.300000    0.00100000  85 t-inv F
 -0.200000  0.200000  0.300000    0.00100000  85 t-inv F
  0.200000 -0.200000  0.300000    0.00100000  85 t-inv F
 -0.200000  0.200000 -0.300000    0.00100000  85 t-inv F
 -0.300000  0.200000 -0.200000    0.00100000  85 t-inv F
  0.300000 -0.200000  0.200000    0.00100000  85 t-inv F
  0.300000  0.200000 -0.200000    0.00100000  85 t-inv F
 -0.300000 -0.200000  0.200000    0.00100000  85 t-inv F
 -0.200000 -0.300000  0.200000    0.00100000  85 t-inv F
  0.200000  0.300000 -0.200000    0.00100000  85 t-inv F
 -0.400000 -0.400000 -0.200000    0.00100000  86 t-inv F
 -0.400000 -0.200000 -0.400000    0.00100000  86 t-inv F
  0.400000  0.200000  0.400000    0.00100000  86 t-inv F
  0.200000  0.400000  0.400000    0.00100000  86 t-inv F
 -0.200000 -0.400000 -0.400000    0.00100000  86 t-inv F
 -0.500000 -0.400000 -0.200000    0.00100000  87 t-inv F
 -0.500000 -0.200000 -0.400000    0.00100000  87 t-inv F
  0.500000  0.200000  0.400000    0.00100000  87 t-inv F
  0.200000  0.500000  0.400000    0.00100000  87 t-inv F
 -0.200000 -0.500000 -0.400000    0.00100000  87 t-inv F
 -0.400000 -0.500000 -0.200000    0.00100000  87 t-inv F
  0.400000  0.500000  0.200000    0.00100000  87 t-inv F
  0.400000  0.200000  0.500000    0.00100000  87 t-inv F
 -0.400000 -0.200000 -0.500000    0.00100000  87 t-inv F
 -0.200000 -0.400000 -0.500000    0.00100000  87 t-inv F
  0.200000  0.400000  0.500000    0.00100000  87 t-inv F
  0.400000 -0.400000 -0.200000    0.00100000  88 t-inv F
  0.400000 -0.200000 -0.400000    0.00100000  88 t-inv F
 -0.400000  0.200000  0.400000    0.00100000  88 t-inv F
  0.200000 -0.400000  0.400000    0.00100000  88 t-inv F
 -0.200000  0.400000 -0.400000    0.00100000  88 t-inv F
 -0.400000  0.400000 -0.200000    0.00100000  88 t-inv F
  0.400000 -0.400000  0.200000    0.00100000  88 t-inv F
  0.400000  0.200000 -0.400000    0.00100000  88 t-inv F
 -0.400000 -0.200000  0.400000    0.00100000  88 t-inv F
 -0.200000 -0.400000  0.400000    0.00100000  88 t-inv F
  0.200000  0.400000 -0.400000    0.00100000  88 t-inv F
  0.300000 -0.400000 -0.200000    0.00100000  89 t-inv F
  0.300000 -0.200000 -0.400000    0.00100000  89 t-inv F
 -0.300000  0.200000  0.400000    0.00100000  89 t-inv F
  0.200000 -0.300000  0.400000    0.00100000  89 t-inv F
 -0.200000  0.300000 -0.400000    0.00100000  89 t-inv F
 -0.400000  0.300000 -0.200000    0.00100000  89 t-inv F
  0.400000 -0.300000  0.200000    0.00100000  89 t-inv F
  0.400000  0.200000 -0.300000    0.00100000  89 t-inv F
 -0.400000 -0.200000  0.300000    0.00100000  89 t-inv F
 -0.200000 -0.400000  0.300000    0.00100000  89 t-inv F
  0.200000  0.400000 -0.300000    0.00100000  89 t-inv F
  0.200000 -0.400000 -0.200000    0.00100000  90 t-inv F
  0.200000 -0.200000 -0.400000    0.00100000  90 t-inv F
 -0.200000  0.200000  0.400000    0.00100000  90 t-inv F
  0.200000 -0.200000  0.400000    0.00100000  90 t-inv F
 -0.200000  0.200000 -0.400000    0.00100000  90 t-inv F
 -0.400000  0.200000 -0.200000    0.00100000  90 t-inv F
  0.400000 -0.200000  0.200000    0.00100000  90 t-inv F
  0.400000  0.200000 -0.200000    0.00100000  90 t-inv F
 -0.400000 -0.200000  0.200000    0.00100000  90 t-inv F
 -0.200000 -0.400000  0.200000    0.00100000  90 t-inv F
  0.200000  0.400000 -0.200000    0.00100000  90 t-inv F
 -0.500000 -0.500000 -0.200000    0.00100000  91 t-inv F
 -0.500000 -0.200000 -0.500000    0.00100000  91 t-inv F
  0.500000  0.200000  0.500000    0.00100000  91 t-inv F
  0.200000  0.500000  0.500000    0.00100000  91 t-inv F
 -0.200000 -0.500000 -0.500000    0.00100000  91 t-inv F
  0.400000 -0.500000 -0.200000    0.00100000  92 t-inv F
  0.400000 -0.200000 -0.500000    0.00100000  92 t-inv F
 -0.400000  0.200000  0.500000    0.00100000  92 t-inv F
  0.200000 -0.400000  0.500000    0.00100000  92 t-inv F
 -0.200000  0.400000 -0.500000    0.00100000  92 t-inv F
 -0.500000  0.400000 -0.200000    0.00100000  92 t-inv F
  0.500000 -0.400000  0.200000    0.00100000  92 t-inv F
  0.500000  0.200000 -0.400000    0.00100000  92 t-inv F
 -0.500000 -0.200000  0.400000    0.00100000  92 t-inv F
 -0.200000 -0.500000  0.400000    0.00100000  92 t-inv F
  0.200000  0.500000 -0.400000    0.00100000  92 t-inv F
  0.300000 -0.500000 -0.200000    0.00100000  93 t-inv F
  0.300000 -0.200000 -0.500000    0.00100000  93 t-inv F
 -0.300000  0.200000  0.500000    0.00100000  93 t-inv F
  0.200000 -0.300000  0.500000    0.00100000  93 t-inv F
 -0.200000  0.300000 -0.500000    0.00100000  93 t-inv F
 -0.500000  0.300000 -0.200000    0.00100000  93 t-inv F
  0.500000 -0.300000  0.200000    0.00100000  93 t-inv F
  0.500000  0.200000 -0.300000    0.00100000  93 t-inv F
 -0.500000 -0.200000  0.300000    0.00100000  93 t-inv F
 -0.200000 -0.500000  0.300000    0.00100000  93 t-inv F
  0.200000  0.500000 -0.300000    0.00100000  93 t-inv F
  0.200000 -0.500000 -0.200000    0.00100000  94 t-inv F
  0.200000 -0.200000 -0.500000    0.00100000  94 t-inv F
 -0.200000  0.200000  0.500000    0.00100000  94 t-inv F
 -0.500000  0.200000 -0.200000    0.00100000  94 t-inv F
  0.500000 -0.200000  0.200000    0.00100000  94 t-inv F
  0.400000  0.400000 -0.200000    0.00100000  95 t-inv F
  0.400000 -0.200000  0.400000    0.00100000  95 t-inv F
 -0.400000  0.200000 -0.400000    0.00100000  95 t-inv F
  0.200000 -0.400000 -0.400000    0.00100000  95 t-inv F
 -0.200000  0.400000  0.400000    0.00100000  95 t-inv F
  0.300000  0.400000 -0.200000    0.00100000  96 t-inv F
  0.300000 -0.200000  0.400000    0.00100000  96 t-inv F
 -0.300000  0.200000 -0.400000    0.00100000  96 t-inv F
  0.200000 -0.300000 -0.400000    0.00100000  96 t-inv F
 -0.200000  0.300000  0.400000    0.00100000  96 t-inv F
  0.400000  0.300000 -0.200000    0.00100000  96 t-inv F
[...]
  eigenvalues    EBANDS =        -0.63860641
  ---------------------------------------------------
  free energy    TOTEN  =        -0.63860641 eV

  energy without entropy =       -0.63860641


------------------------ aborting loop because EDIFF is reached ----------------------------------------


 change of polarisation eV/A/(eV/A) component  2 :     0.265     1.277     0.013
 dielectric tensor                  component  2 :     1.221     6.878     0.060


--------------------------------------------------------------------------------------------------------


 Linear response to external field (no local field effect), progress :
  Direction:   3
  LATTYP: Found a trigonal (rhomboedric) cell.
 ALAT       =     5.8622747487
 COS(alpha) =     0.8826433487
  
  Lattice vectors:
  
 A1 = (   1.4200545446,   0.8198688751,   5.6282790774)
 A2 = (  -1.4200545446,   0.8198688751,   5.6282790774)
 A3 = (   0.0000000000,  -1.6397377402,   5.6282790774)


Analysis of symmetry for initial positions (statically):
=====================================================================
 Subroutine PRICEL returns:
 Original cell was already a primitive cell.
 

 Routine SETGRP: Setting up the symmetry group for a 
 trigonal (rhombohedral) supercell.


 Subroutine GETGRP returns: Found 12 space group operations
 (whereof 12 operations were pure point group operations)
 out of a pool of 12 trial point group operations.


The static configuration has the point symmetry D_3d.


Analysis of symmetry for dynamics (positions and initial velocities):
=====================================================================
 Subroutine PRICEL returns:
 Original cell was already a primitive cell.
 

 Routine SETGRP: Setting up the symmetry group for a 
 trigonal (rhombohedral) supercell.


 Subroutine GETGRP returns: Found  6 space group operations
 (whereof  6 operations were pure point group operations)
 out of a pool of 12 trial point group operations.


The dynamic configuration has the point symmetry C_3v.


 Subroutine INISYM returns: Found  6 space group operations
 (whereof  6 operations are pure point group operations),
 and found     1 'primitive' translations



----------------------------------------- Iteration    3(   1)  ---------------------------------------


   POT+DIJ:  cpu time    0.4823: real time    0.4852
    HAMIL1:  cpu time    0.8720: real time    0.8772
    LRDIAG:  cpu time    0.1269: real time    0.1274
    LRDIIS:  cpu time    2.1571: real time    2.1695
    LRDIAG:  cpu time    0.1220: real time    0.1226
    --------------------------------------------
      LOOP:  cpu time    3.7610: real time    3.7826

 Free energy of the ion-electron system (eV)
  ---------------------------------------------------
  -Hartree energ DENC   =         0.00000000
  -V(xc)+E(xc)   XCENC  =         0.00000000
  PAW double counting   =         0.00000000        0.00000000
  entropy T*S    EENTRO =         0.00000000
  eigenvalues    EBANDS =        -0.13119528
  ---------------------------------------------------
  free energy    TOTEN  =        -0.13119528 eV

  energy without entropy =       -0.13119528


----------------------------------------- Iteration    3(   2)  ---------------------------------------


   POT+DIJ:  cpu time    0.4790: real time    0.4820
    HAMIL1:  cpu time    0.8612: real time    0.8663
    LRDIAG:  cpu time    0.1260: real time    0.1265
    LRDIIS:  cpu time    3.3211: real time    3.3411
    LRDIAG:  cpu time    0.1209: real time    0.1214
    --------------------------------------------
      LOOP:  cpu time    4.9090: real time    4.9382

 Free energy of the ion-electron system (eV)
  ---------------------------------------------------
  -Hartree energ DENC   =         0.00000000
  -V(xc)+E(xc)   XCENC  =         0.00000000
  PAW double counting   =         0.00000000        0.00000000
  entropy T*S    EENTRO =         0.00000000
  eigenvalues    EBANDS =        -0.35981366
  ---------------------------------------------------
  free energy    TOTEN  =        -0.35981366 eV

  energy without entropy =       -0.35981366


----------------------------------------- Iteration    3(   3)  ---------------------------------------


   POT+DIJ:  cpu time    0.4794: real time    0.4822
    HAMIL1:  cpu time    0.8661: real time    0.8712
    LRDIAG:  cpu time    0.1259: real time    0.1264
    LRDIIS:  cpu time    3.9281: real time    3.9516
    LRDIAG:  cpu time    0.1181: real time    0.1186
    --------------------------------------------
      LOOP:  cpu time    5.5184: real time    5.5508

 Free energy of the ion-electron system (eV)
  ---------------------------------------------------
  -Hartree energ DENC   =         0.00000000
  -V(xc)+E(xc)   XCENC  =         0.00000000
  PAW double counting   =         0.00000000        0.00000000
  entropy T*S    EENTRO =         0.00000000
  eigenvalues    EBANDS =        -0.39621700
  ---------------------------------------------------
  free energy    TOTEN  =        -0.39621700 eV

  energy without entropy =       -0.39621700


----------------------------------------- Iteration    3(   4)  ---------------------------------------


   POT+DIJ:  cpu time    0.4800: real time    0.4833
    HAMIL1:  cpu time    0.8636: real time    0.8686
    LRDIAG:  cpu time    0.1258: real time    0.1263
    LRDIIS:  cpu time    4.0505: real time    4.0743
    LRDIAG:  cpu time    0.1182: real time    0.1188
    --------------------------------------------
      LOOP:  cpu time    5.6389: real time    5.6720

 Free energy of the ion-electron system (eV)
  ---------------------------------------------------
  -Hartree energ DENC   =         0.00000000
  -V(xc)+E(xc)   XCENC  =         0.00000000
  PAW double counting   =         0.00000000        0.00000000
  entropy T*S    EENTRO =         0.00000000
  eigenvalues    EBANDS =        -0.40176259
  ---------------------------------------------------
  free energy    TOTEN  =        -0.40176259 eV

  energy without entropy =       -0.40176259


----------------------------------------- Iteration    3(   5)  ---------------------------------------


   POT+DIJ:  cpu time    0.4794: real time    0.4829
    HAMIL1:  cpu time    0.8599: real time    0.8649
    LRDIAG:  cpu time    0.1257: real time    0.1263
    LRDIIS:  cpu time    4.0513: real time    4.0757
    LRDIAG:  cpu time    0.1178: real time    0.1183
    --------------------------------------------
      LOOP:  cpu time    5.6349: real time    5.6688

 Free energy of the ion-electron system (eV)
  ---------------------------------------------------
  -Hartree energ DENC   =         0.00000000
  -V(xc)+E(xc)   XCENC  =         0.00000000
  PAW double counting   =         0.00000000        0.00000000
  entropy T*S    EENTRO =         0.00000000
  eigenvalues    EBANDS =        -0.40300030
  ---------------------------------------------------
  free energy    TOTEN  =        -0.40300030 eV

  energy without entropy =       -0.40300030


----------------------------------------- Iteration    3(   6)  ---------------------------------------


   POT+DIJ:  cpu time    0.4823: real time    0.4852
    HAMIL1:  cpu time    0.8623: real time    0.8675
    LRDIAG:  cpu time    0.1255: real time    0.1261
    LRDIIS:  cpu time    4.1762: real time    4.2013
    LRDIAG:  cpu time    0.1188: real time    0.1195
    --------------------------------------------
      LOOP:  cpu time    5.7660: real time    5.8005

 Free energy of the ion-electron system (eV)
  ---------------------------------------------------
  -Hartree energ DENC   =         0.00000000
  -V(xc)+E(xc)   XCENC  =         0.00000000
  PAW double counting   =         0.00000000        0.00000000
  entropy T*S    EENTRO =         0.00000000
  eigenvalues    EBANDS =        -0.40332555
  ---------------------------------------------------
  free energy    TOTEN  =        -0.40332555 eV

  energy without entropy =       -0.40332555


----------------------------------------- Iteration    3(   7)  ---------------------------------------


   POT+DIJ:  cpu time    0.4801: real time    0.4833
    HAMIL1:  cpu time    0.8627: real time    0.8677
    LRDIAG:  cpu time    0.1254: real time    0.1261
    LRDIIS:  cpu time    4.3178: real time    4.3440
    LRDIAG:  cpu time    0.1184: real time    0.1190
    --------------------------------------------
      LOOP:  cpu time    5.9055: real time    5.9409

 Free energy of the ion-electron system (eV)
  ---------------------------------------------------
  -Hartree energ DENC   =         0.00000000
  -V(xc)+E(xc)   XCENC  =         0.00000000
  PAW double counting   =         0.00000000        0.00000000
  entropy T*S    EENTRO =         0.00000000
  eigenvalues    EBANDS =        -0.40340734
  ---------------------------------------------------
  free energy    TOTEN  =        -0.40340734 eV

  energy without entropy =       -0.40340734


----------------------------------------- Iteration    3(   8)  ---------------------------------------


   POT+DIJ:  cpu time    0.4822: real time    0.4852
    HAMIL1:  cpu time    0.8602: real time    0.8654
    LRDIAG:  cpu time    0.1255: real time    0.1260
    LRDIIS:  cpu time    4.2052: real time    4.2302
    LRDIAG:  cpu time    0.1183: real time    0.1189
    --------------------------------------------
      LOOP:  cpu time    5.7920: real time    5.8264

 Free energy of the ion-electron system (eV)
  ---------------------------------------------------
  -Hartree energ DENC   =         0.00000000
  -V(xc)+E(xc)   XCENC  =         0.00000000
  PAW double counting   =         0.00000000        0.00000000
  entropy T*S    EENTRO =         0.00000000
  eigenvalues    EBANDS =        -0.40342419
  ---------------------------------------------------
  free energy    TOTEN  =        -0.40342419 eV

  energy without entropy =       -0.40342419


----------------------------------------- Iteration    3(   9)  ---------------------------------------


   POT+DIJ:  cpu time    0.4785: real time    0.4821
    HAMIL1:  cpu time    0.8742: real time    0.8794
    LRDIAG:  cpu time    0.1284: real time    0.1292
    LRDIIS:  cpu time    4.2332: real time    4.2586
    LRDIAG:  cpu time    0.1179: real time    0.1185
    --------------------------------------------
      LOOP:  cpu time    5.8329: real time    5.8684

 Free energy of the ion-electron system (eV)
  ---------------------------------------------------
  -Hartree energ DENC   =         0.00000000
  -V(xc)+E(xc)   XCENC  =         0.00000000
  PAW double counting   =         0.00000000        0.00000000
  entropy T*S    EENTRO =         0.00000000
  eigenvalues    EBANDS =        -0.40343104
  ---------------------------------------------------
  free energy    TOTEN  =        -0.40343104 eV

  energy without entropy =       -0.40343104


----------------------------------------- Iteration    3(  10)  ---------------------------------------


   POT+DIJ:  cpu time    0.4816: real time    0.4848
    HAMIL1:  cpu time    0.8580: real time    0.8630
    LRDIAG:  cpu time    0.1258: real time    0.1263
    LRDIIS:  cpu time    4.2114: real time    4.2365
    LRDIAG:  cpu time    0.1176: real time    0.1182
    --------------------------------------------
      LOOP:  cpu time    5.7951: real time    5.8295

 Free energy of the ion-electron system (eV)
  ---------------------------------------------------
  -Hartree energ DENC   =         0.00000000
  -V(xc)+E(xc)   XCENC  =         0.00000000
  PAW double counting   =         0.00000000        0.00000000
  entropy T*S    EENTRO =         0.00000000
  eigenvalues    EBANDS =        -0.40343225
  ---------------------------------------------------
  free energy    TOTEN  =        -0.40343225 eV

  energy without entropy =       -0.40343225


----------------------------------------- Iteration    3(  11)  ---------------------------------------


   POT+DIJ:  cpu time    0.4806: real time    0.4836
    HAMIL1:  cpu time    0.8592: real time    0.8640
    LRDIAG:  cpu time    0.1249: real time    0.1255
    LRDIIS:  cpu time    4.1965: real time    4.2217
    LRDIAG:  cpu time    0.1193: real time    0.1198
    --------------------------------------------
      LOOP:  cpu time    5.7813: real time    5.8154

 Free energy of the ion-electron system (eV)
  ---------------------------------------------------
  -Hartree energ DENC   =         0.00000000
  -V(xc)+E(xc)   XCENC  =         0.00000000
  PAW double counting   =         0.00000000        0.00000000
  entropy T*S    EENTRO =         0.00000000
  eigenvalues    EBANDS =        -0.40343267
  ---------------------------------------------------
  free energy    TOTEN  =        -0.40343267 eV

  energy without entropy =       -0.40343267


----------------------------------------- Iteration    3(  12)  ---------------------------------------


   POT+DIJ:  cpu time    0.4798: real time    0.4827
    HAMIL1:  cpu time    0.8636: real time    0.8686
    LRDIAG:  cpu time    0.1253: real time    0.1258
    LRDIIS:  cpu time    4.1575: real time    4.1824
    LRDIAG:  cpu time    0.1189: real time    0.1194
    --------------------------------------------
      LOOP:  cpu time    5.7457: real time    5.7795

 Free energy of the ion-electron system (eV)
  ---------------------------------------------------
  -Hartree energ DENC   =         0.00000000
  -V(xc)+E(xc)   XCENC  =         0.00000000
  PAW double counting   =         0.00000000        0.00000000
  entropy T*S    EENTRO =         0.00000000
  eigenvalues    EBANDS =        -0.40343283
  ---------------------------------------------------
  free energy    TOTEN  =        -0.40343283 eV

  energy without entropy =       -0.40343283


----------------------------------------- Iteration    3(  13)  ---------------------------------------


   POT+DIJ:  cpu time    0.4808: real time    0.4837
    HAMIL1:  cpu time    0.8639: real time    0.8692
    LRDIAG:  cpu time    0.1256: real time    0.1262
    LRDIIS:  cpu time    4.0553: real time    4.0801
    LRDIAG:  cpu time    0.1182: real time    0.1187
    --------------------------------------------
      LOOP:  cpu time    5.6444: real time    5.6784

 Free energy of the ion-electron system (eV)
  ---------------------------------------------------
  -Hartree energ DENC   =         0.00000000
  -V(xc)+E(xc)   XCENC  =         0.00000000
  PAW double counting   =         0.00000000        0.00000000
  entropy T*S    EENTRO =         0.00000000
  eigenvalues    EBANDS =        -0.40343286
  ---------------------------------------------------
  free energy    TOTEN  =        -0.40343286 eV

  energy without entropy =       -0.40343286


------------------------ aborting loop because EDIFF is reached ----------------------------------------


 change of polarisation eV/A/(eV/A) component  3 :     0.030     0.013     0.807
 dielectric tensor                  component  3 :     0.138     0.060     4.714


--------------------------------------------------------------------------------------------------------


  LATTYP: Found a trigonal (rhomboedric) cell.
 ALAT       =     5.8622747487
 COS(alpha) =     0.8826433487
  
  Lattice vectors:
  
 A1 = (   1.4200545446,   0.8198688751,   5.6282790774)
 A2 = (  -1.4200545446,   0.8198688751,   5.6282790774)
 A3 = (   0.0000000000,  -1.6397377402,   5.6282790774)


Analysis of symmetry for initial positions (statically):
=====================================================================
 Subroutine PRICEL returns:
 Original cell was already a primitive cell.
 

 Routine SETGRP: Setting up the symmetry group for a 
 trigonal (rhombohedral) supercell.


 Subroutine GETGRP returns: Found 12 space group operations
 (whereof 12 operations were pure point group operations)
 out of a pool of 12 trial point group operations.


The static configuration has the point symmetry D_3d.


Analysis of symmetry for dynamics (positions and initial velocities):
=====================================================================
 Subroutine PRICEL returns:
 Original cell was already a primitive cell.
 

 Routine SETGRP: Setting up the symmetry group for a 
 trigonal (rhombohedral) supercell.


 Subroutine GETGRP returns: Found 12 space group operations
 (whereof 12 operations were pure point group operations)
 out of a pool of 12 trial point group operations.


The dynamic configuration has the point symmetry D_3d.


 Subroutine INISYM returns: Found 12 space group operations
 (whereof 12 operations are pure point group operations),
 and found     1 'primitive' translations



 HEAD OF MICROSCOPIC STATIC DIELECTRIC TENSOR (INDEPENDENT PARTICLE, excluding Hartree and local field effects)
 ------------------------------------------------------
           6.624173    -0.000000    -0.000000
          -0.000000     6.624173     0.000000
          -0.000000     0.000000     4.713553
 ------------------------------------------------------



--------------------------------------------------------------------------------------------------------


 Linear response to external field, progress :
  Direction:   1
  LATTYP: Found a trigonal (rhomboedric) cell.
 ALAT       =     5.8622747487
 COS(alpha) =     0.8826433487
  
  Lattice vectors:
  
 A1 = (   1.4200545446,   0.8198688751,   5.6282790774)
 A2 = (  -1.4200545446,   0.8198688751,   5.6282790774)
 A3 = (   0.0000000000,  -1.6397377402,   5.6282790774)


Analysis of symmetry for initial positions (statically):
=====================================================================
 Subroutine PRICEL returns:
 Original cell was already a primitive cell.
 

 Routine SETGRP: Setting up the symmetry group for a 
 trigonal (rhombohedral) supercell.


 Subroutine GETGRP returns: Found 12 space group operations
 (whereof 12 operations were pure point group operations)
 out of a pool of 12 trial point group operations.


The static configuration has the point symmetry D_3d.


Analysis of symmetry for dynamics (positions and initial velocities):
=====================================================================
 Subroutine PRICEL returns:
 Original cell was already a primitive cell.
 

 Routine SETGRP: Setting up the symmetry group for a 
 trigonal (rhombohedral) supercell.


 Subroutine GETGRP returns: Found  2 space group operations
 (whereof  2 operations were pure point group operations)
 out of a pool of 12 trial point group operations.


The dynamic configuration has the point symmetry C_2 .


 Subroutine INISYM returns: Found  2 space group operations
 (whereof  2 operations are pure point group operations),
 and found     1 'primitive' translations


 ----------------------------------------------------------------------------- 
|                                                                             |
|     EEEEEEE  RRRRRR   RRRRRR   OOOOOOO  RRRRRR      ###     ###     ###     |
|     E        R     R  R     R  O     O  R     R     ###     ###     ###     |
|     E        R     R  R     R  O     O  R     R     ###     ###     ###     |
|     EEEEE    RRRRRR   RRRRRR   O     O  RRRRRR       #       #       #      |
|     E        R   R    R   R    O     O  R   R                               |
|     E        R    R   R    R   O     O  R    R      ###     ###     ###     |
|     EEEEEEE  R     R  R     R  OOOOOOO  R     R     ###     ###     ###     |
|                                                                             |
|      VASP internal routines  have requested a change of the k-point set.    |
|      Unfortunately this is only possible if NPAR=number of nodes.           |
|      Please remove the tag NPAR from the INCAR file and restart the         |
|      calculations.                                                          |
|                                                                             |
 ----------------------------------------------------------------------------- 

