 vasp.5.4.4.18Apr17-6-g9f103f2a35 (build Dec 13 2019 19:06:22) complex          
  
 executed on             LinuxIFC date 2021.07.02  09:37:19
 running on   12 total cores
 distrk:  each k-point on    2 cores,    6 groups
 distr:  one band on NCORES_PER_BAND=   1 cores,    2 groups


--------------------------------------------------------------------------------------------------------


 INCAR:
 POTCAR:    PAW_PBE Cu_sv_GW 05Dec2013            
 POTCAR:    PAW_PBE Al_GW 19Mar2012               
 POTCAR:    PAW_PBE O_GW 28Sep2005                

 ----------------------------------------------------------------------------- 
|                                                                             |
|           W    W    AA    RRRRR   N    N  II  N    N   GGGG   !!!           |
|           W    W   A  A   R    R  NN   N  II  NN   N  G    G  !!!           |
|           W    W  A    A  R    R  N N  N  II  N N  N  G       !!!           |
|           W WW W  AAAAAA  RRRRR   N  N N  II  N  N N  G  GGG   !            |
|           WW  WW  A    A  R   R   N   NN  II  N   NN  G    G                |
|           W    W  A    A  R    R  N    N  II  N    N   GGGG   !!!           |
|                                                                             |
|      For optimal performance we recommend to set                            |
|        NCORE= 4 - approx SQRT( number of cores)                             |
|      NCORE specifies how many cores store one orbital (NPAR=cpu/NCORE).     |
|      This setting can  greatly improve the performance of VASP for DFT.     |
|      The default,   NCORE=1            might be grossly inefficient         |
|      on modern multi-core architectures or massively parallel machines.     |
|      Do your own testing !!!!                                               |
|      Unfortunately you need to use the default for GW and RPA calculations. |
|      (for HF NCORE is supported but not extensively tested yet)             |
|                                                                             |
 ----------------------------------------------------------------------------- 


 ----------------------------------------------------------------------------- 
|                                                                             |
|           W    W    AA    RRRRR   N    N  II  N    N   GGGG   !!!           |
|           W    W   A  A   R    R  NN   N  II  NN   N  G    G  !!!           |
|           W    W  A    A  R    R  N N  N  II  N N  N  G       !!!           |
|           W WW W  AAAAAA  RRRRR   N  N N  II  N  N N  G  GGG   !            |
|           WW  WW  A    A  R   R   N   NN  II  N   NN  G    G                |
|           W    W  A    A  R    R  N    N  II  N    N   GGGG   !!!           |
|                                                                             |
|      You have enabled k-point parallelism (KPAR>1).                         |
|      This developmental code was originally  written by Paul Kent at ORNL,  |
|      and carefully double checked in Vienna.                                |
|      GW as well as linear response parallelism added by Martijn Marsman     |
|      and Georg Kresse.                                                      |
|      Carefully verify results versus KPAR=1.                                |
|      Report problems to Paul Kent and Vienna.                               |
|                                                                             |
 ----------------------------------------------------------------------------- 

 POTCAR:    PAW_PBE Cu_sv_GW 05Dec2013            
   VRHFIN =Cu: d10 p1                                                           
   LEXCH  = PE                                                                  
   EATOM  =  5382.7943 eV,  395.6242 Ry                                         
                                                                                
   TITEL  = PAW_PBE Cu_sv_GW 05Dec2013                                          
   LULTRA =        F    use ultrasoft PP ?                                      
   IUNSCR =        1    unscreen: 0-lin 1-nonlin 2-no                           
   RPACOR =    1.400    partial core radius                                     
   POMASS =   63.546; ZVAL   =   19.000    mass and valenz                      
   RCORE  =    1.900    outmost cutoff radius                                   
   RWIGS  =    2.100; RWIGS  =    1.111    wigner-seitz radius (au A)           
   ENMAX  =  391.688; ENMIN  =  293.766 eV                                      
   RCLOC  =    1.304    cutoff for local pot                                    
   LCOR   =        T    correct aug charges                                     
   LPAW   =        T    paw PP                                                  
   EAUG   =  982.892                                                            
   RMAX   =    1.950    core radius for proj-oper                               
   RAUG   =    1.300    factor for augmentation sphere                          
   RDEP   =    2.025    radius for radial grids                                 
   RDEPT  =    1.600    core radius for aug-charge                              
                                                                                
   Atomic configuration                                                         
    9 entries                                                                   
     n  l   j            E        occ.                                          
     1  0  0.50     -8850.2467   2.0000                                         
     2  0  0.50     -1062.3498   2.0000                                         
     2  1  1.50      -916.8226   6.0000                                         
     3  0  0.50      -114.6929   2.0000                                         
     4  0  0.50        -4.6097   1.0000                                         
     3  1  1.50       -72.1325   6.0000                                         
     3  1  1.50       -76.2144   0.0000                                         
     3  2  2.50        -5.0394  10.0000                                         
     4  3  2.50        -1.3606   0.0000                                         
   Description                                                                  
     l       E           TYP  RCUT    TYP  RCUT                                 
     0   -114.6929173     23  1.330                                             
     0     -4.6097111     23  1.700                                             
     0    204.0873900     23  1.330                                             
     1    -72.1324964     23  1.650                                             
     1    -76.2143949     23  1.650                                             
     1    136.0582600     23  1.650                                             
     2     -5.0393943     23  1.900                                             
     2     27.2116520     23  1.900                                             
     2    136.0582600     23  1.900                                             
     3     27.2116520     23  1.900                                             
     3    136.0582600     23  1.900                                             
  local pseudopotential read in
  partial core-charges read in
  partial kinetic energy density read in
  kinetic energy density of atom read in
  atomic valenz-charges read in
  non local Contribution for L=           0  read in
    real space projection operators read in
  non local Contribution for L=           0  read in
    real space projection operators read in
  non local Contribution for L=           0  read in
    real space projection operators read in
  non local Contribution for L=           1  read in
    real space projection operators read in
  non local Contribution for L=           1  read in
    real space projection operators read in
  non local Contribution for L=           1  read in
    real space projection operators read in
  non local Contribution for L=           2  read in
    real space projection operators read in
  non local Contribution for L=           2  read in
    real space projection operators read in
  non local Contribution for L=           2  read in
    real space projection operators read in
  non local Contribution for L=           3  read in
    real space projection operators read in
  non local Contribution for L=           3  read in
    real space projection operators read in
    PAW grid and wavefunctions read in
 
   number of l-projection  operators is LMAX  =          11
   number of lm-projection operators is LMMAX =          41
 
 POTCAR:    PAW_PBE Al_GW 19Mar2012               
   VRHFIN =Al: s2p1                                                             
   LEXCH  = PE                                                                  
   EATOM  =    53.5387 eV,    3.9350 Ry                                         
                                                                                
   TITEL  = PAW_PBE Al_GW 19Mar2012                                             
   LULTRA =        F    use ultrasoft PP ?                                      
   IUNSCR =        1    unscreen: 0-lin 1-nonlin 2-no                           
   RPACOR =    1.500    partial core radius                                     
   POMASS =   26.982; ZVAL   =    3.000    mass and valenz                      
   RCORE  =    2.000    outmost cutoff radius                                   
   RWIGS  =    2.000; RWIGS  =    1.058    wigner-seitz radius (au A)           
   ENMAX  =  240.300; ENMIN  =  180.225 eV                                      
   ICORE  =        3    local potential                                         
   LCOR   =        T    correct aug charges                                     
   LPAW   =        T    paw PP                                                  
   EAUG   =  482.059                                                            
   DEXC   =    0.000                                                            
   RMAX   =    2.051    core radius for proj-oper                               
   RAUG   =    1.300    factor for augmentation sphere                          
   RDEP   =    2.096    radius for radial grids                                 
   RDEPT  =    1.856    core radius for aug-charge                              
                                                                                
   Atomic configuration                                                         
    7 entries                                                                   
     n  l   j            E        occ.                                          
     1  0  0.50     -1511.1048   2.0000                                         
     2  0  0.50      -108.1629   2.0000                                         
     2  1  1.50       -69.6402   6.0000                                         
     3  0  0.50        -7.7528   2.0000                                         
     3  1  1.50        -2.7121   1.0000                                         
     3  2  2.50        -2.7212   0.0000                                         
     4  3  2.50        -2.7212   0.0000                                         
   Description                                                                  
     l       E           TYP  RCUT    TYP  RCUT                                 
     0     -7.7528455     23  1.900                                             
     0     68.0291300     23  1.900                                             
     1     -2.7120682     23  1.900                                             
     1     68.0291300     23  1.900                                             
     2     -1.3605826     23  1.900                                             
     2     81.6349560     23  1.900                                             
     3     74.8320430     23  2.000                                             
  local pseudopotential read in
  partial core-charges read in
  partial kinetic energy density read in
  kinetic energy density of atom read in
  atomic valenz-charges read in
  non local Contribution for L=           0  read in
    real space projection operators read in
  non local Contribution for L=           0  read in
    real space projection operators read in
  non local Contribution for L=           1  read in
    real space projection operators read in
  non local Contribution for L=           1  read in
    real space projection operators read in
  non local Contribution for L=           2  read in
    real space projection operators read in
  non local Contribution for L=           2  read in
    real space projection operators read in
    PAW grid and wavefunctions read in
 
   number of l-projection  operators is LMAX  =           6
   number of lm-projection operators is LMMAX =          18
 
 POTCAR:    PAW_PBE O_GW 28Sep2005                
   VRHFIN =O: s2p4                                                              
   LEXCH  = PE                                                                  
   EATOM  =   432.3788 eV,   31.7789 Ry                                         
                                                                                
   TITEL  = PAW_PBE O_GW 28Sep2005                                              
   LULTRA =        F    use ultrasoft PP ?                                      
   IUNSCR =        0    unscreen: 0-lin 1-nonlin 2-no                           
   RPACOR =    0.000    partial core radius                                     
   POMASS =   16.000; ZVAL   =    6.000    mass and valenz                      
   RCORE  =    1.520    outmost cutoff radius                                   
   RWIGS  =    1.550; RWIGS  =    0.820    wigner-seitz radius (au A)           
   ENMAX  =  414.635; ENMIN  =  310.976 eV                                      
   ICORE  =        2    local potential                                         
   LCOR   =        T    correct aug charges                                     
   LPAW   =        T    paw PP                                                  
   EAUG   =  605.392                                                            
   DEXC   =    0.000                                                            
   RMAX   =    1.553    core radius for proj-oper                               
   RAUG   =    1.300    factor for augmentation sphere                          
   RDEP   =    1.550    radius for radial grids                                 
   RDEPT  =    1.329    core radius for aug-charge                              
                                                                                
   Atomic configuration                                                         
    4 entries                                                                   
     n  l   j            E        occ.                                          
     1  0  0.50      -514.6923   2.0000                                         
     2  0  0.50       -23.9615   2.0000                                         
     2  1  0.50        -9.0305   4.0000                                         
     3  2  1.50        -9.5241   0.0000                                         
   Description                                                                  
     l       E           TYP  RCUT    TYP  RCUT                                 
     0    -23.9615316     23  1.200                                             
     0     81.6349560     23  1.200                                             
     1     -9.0304908     23  1.520                                             
     1     81.6349560     23  1.520                                             
     2     -9.5240782      7  1.500                                             
  local pseudopotential read in
  kinetic energy density of atom read in
  atomic valenz-charges read in
  non local Contribution for L=           0  read in
    real space projection operators read in
  non local Contribution for L=           0  read in
    real space projection operators read in
  non local Contribution for L=           1  read in
    real space projection operators read in
  non local Contribution for L=           1  read in
    real space projection operators read in
    PAW grid and wavefunctions read in
 
   number of l-projection  operators is LMAX  =           4
   number of lm-projection operators is LMMAX =           8
 

 ----------------------------------------------------------------------------- 
|                                                                             |
|  ADVICE TO THIS USER RUNNING 'VASP/VAMP'   (HEAR YOUR MASTER'S VOICE ...):  |
|                                                                             |
|      You enforced a specific xc-type in the INCAR file,                     |
|      a different type was found on the POTCAR file                          |
|          I HOPE YOU KNOW, WHAT YOU ARE  DOING                               |
|                                                                             |
 ----------------------------------------------------------------------------- 

  PAW_PBE Cu_sv_GW 05Dec2013            :
 energy of atom  1       EATOM=-5382.7943
 kinetic energy error for atom=    0.0943 (will be added to EATOM!!)
  PAW_PBE Al_GW 19Mar2012               :
 energy of atom  2       EATOM=  -53.5387
 kinetic energy error for atom=    0.0002 (will be added to EATOM!!)
  PAW_PBE O_GW 28Sep2005                :
 energy of atom  3       EATOM= -432.3788
 kinetic energy error for atom=    0.0194 (will be added to EATOM!!)
 
 
 POSCAR: CuAlO2 BenkoF84                         
  positions in direct lattice
  No initial velocities read in
 exchange correlation table for  LEXCH =       14
   RHO(1)=    0.500       N(1)  =     2000
   RHO(2)=  100.500       N(2)  =     4000
 


--------------------------------------------------------------------------------------------------------


 ion  position               nearest neighbor table
   1  0.000  0.000  0.000-   3 1.85   4 1.85
   2  0.500  0.500  0.500-   3 1.90   4 1.90   3 1.90   3 1.90   4 1.90   4 1.90
   3  0.110  0.110  0.110-   1 1.85   2 1.90   2 1.90   2 1.90
   4  0.890  0.890  0.890-   1 1.85   2 1.90   2 1.90   2 1.90
 
  LATTYP: Found a trigonal (rhomboedric) cell.
 ALAT       =     5.8622747487
 COS(alpha) =     0.8826433487
  
  Lattice vectors:
  
 A1 = (   1.4200545446,   0.8198688751,   5.6282790774)
 A2 = (  -1.4200545446,   0.8198688751,   5.6282790774)
 A3 = (   0.0000000000,  -1.6397377402,   5.6282790774)


Analysis of symmetry for initial positions (statically):
=====================================================================
 Subroutine PRICEL returns:
 Original cell was already a primitive cell.
 

 Routine SETGRP: Setting up the symmetry group for a 
 trigonal (rhombohedral) supercell.


 Subroutine GETGRP returns: Found 12 space group operations
 (whereof 12 operations were pure point group operations)
 out of a pool of 12 trial point group operations.


The static configuration has the point symmetry D_3d.


Analysis of symmetry for dynamics (positions and initial velocities):
=====================================================================
 Subroutine PRICEL returns:
 Original cell was already a primitive cell.
 

 Routine SETGRP: Setting up the symmetry group for a 
 trigonal (rhombohedral) supercell.


 Subroutine GETGRP returns: Found 12 space group operations
 (whereof 12 operations were pure point group operations)
 out of a pool of 12 trial point group operations.


The dynamic configuration has the point symmetry D_3d.


 Subroutine INISYM returns: Found 12 space group operations
 (whereof 12 operations are pure point group operations),
 and found     1 'primitive' translations

 
 
 KPOINTS: CuMO2                                   

Automatic generation of k-mesh.
Space group operators:
 irot       det(A)        alpha          n_x          n_y          n_z        tau_x        tau_y        tau_z
    1     1.000000     0.000000     1.000000     0.000000     0.000000     0.000000     0.000000     0.000000
    2    -1.000000     0.000000     1.000000     0.000000     0.000000     0.000000     0.000000     0.000000
    3     1.000000   180.000000    -0.500000     0.866025    -0.000000     0.000000     0.000000     0.000000
    4    -1.000000   180.000000    -0.500000     0.866025    -0.000000     0.000000     0.000000     0.000000
    5     1.000000   120.000000     0.000000    -0.000000    -1.000000     0.000000     0.000000     0.000000
    6    -1.000000   120.000000     0.000000    -0.000000    -1.000000     0.000000     0.000000     0.000000
    7     1.000000   180.000000     1.000000     0.000000     0.000000     0.000000     0.000000     0.000000
    8    -1.000000   180.000000     1.000000     0.000000     0.000000     0.000000     0.000000     0.000000
    9     1.000000   120.000000     0.000000     0.000000     1.000000     0.000000     0.000000     0.000000
   10    -1.000000   120.000000     0.000000     0.000000     1.000000     0.000000     0.000000     0.000000
   11     1.000000   180.000000     0.500000     0.866025    -0.000000     0.000000     0.000000     0.000000
   12    -1.000000   180.000000     0.500000     0.866025    -0.000000     0.000000     0.000000     0.000000
 
 Subroutine IBZKPT returns following result:
 ===========================================
 
 Found    116 irreducible k-points:
 
 Following reciprocal coordinates:
            Coordinates               Weight
  0.000000  0.000000  0.000000      1.000000
  0.100000  0.000000  0.000000      6.000000
  0.200000  0.000000  0.000000      6.000000
  0.300000  0.000000  0.000000      6.000000
  0.400000  0.000000  0.000000      6.000000
  0.500000  0.000000  0.000000      3.000000
  0.100000  0.100000  0.000000      6.000000
  0.200000  0.100000  0.000000     12.000000
  0.300000  0.100000  0.000000     12.000000
  0.400000  0.100000  0.000000     12.000000
  0.500000  0.100000  0.000000     12.000000
 -0.400000  0.100000 -0.000000     12.000000
 -0.300000  0.100000 -0.000000     12.000000
 -0.200000  0.100000 -0.000000     12.000000
 -0.100000  0.100000  0.000000      6.000000
  0.200000  0.200000  0.000000      6.000000
  0.300000  0.200000  0.000000     12.000000
  0.400000  0.200000  0.000000     12.000000
  0.500000  0.200000 -0.000000     12.000000
 -0.400000  0.200000 -0.000000     12.000000
 -0.300000  0.200000 -0.000000     12.000000
 -0.200000  0.200000  0.000000      6.000000
  0.300000  0.300000  0.000000      6.000000
  0.400000  0.300000  0.000000     12.000000
  0.500000  0.300000  0.000000     12.000000
 -0.400000  0.300000  0.000000     12.000000
 -0.300000  0.300000  0.000000      6.000000
  0.400000  0.400000  0.000000      6.000000
  0.500000  0.400000 -0.000000     12.000000
 -0.400000  0.400000  0.000000      6.000000
  0.500000  0.500000  0.000000      3.000000
  0.100000  0.100000  0.100000      2.000000
  0.200000  0.100000  0.100000      6.000000
  0.300000  0.100000  0.100000      6.000000
  0.400000  0.100000  0.100000      6.000000
  0.500000  0.100000  0.100000      6.000000
 -0.400000  0.100000  0.100000      6.000000
 -0.300000  0.100000  0.100000      6.000000
 -0.200000  0.100000  0.100000      6.000000
 -0.100000  0.100000  0.100000      6.000000
  0.200000  0.200000  0.100000      6.000000
  0.300000  0.200000  0.100000     12.000000
  0.400000  0.200000  0.100000     12.000000
  0.500000  0.200000  0.100000     12.000000
 -0.400000  0.200000  0.100000     12.000000
 -0.300000  0.200000  0.100000     12.000000
 -0.200000  0.200000  0.100000     12.000000
 -0.100000  0.200000  0.100000     12.000000
  0.300000  0.300000  0.100000      6.000000
  0.400000  0.300000  0.100000     12.000000
  0.500000  0.300000  0.100000     12.000000
 -0.400000  0.300000  0.100000     12.000000
 -0.300000  0.300000  0.100000     12.000000
 -0.200000  0.300000  0.100000     12.000000
 -0.100000  0.300000  0.100000     12.000000
  0.400000  0.400000  0.100000      6.000000
  0.500000  0.400000  0.100000     12.000000
 -0.400000  0.400000  0.100000     12.000000
 -0.300000  0.400000  0.100000     12.000000
 -0.200000  0.400000  0.100000     12.000000
 -0.100000  0.400000  0.100000     12.000000
  0.500000  0.500000  0.100000      6.000000
 -0.400000  0.500000  0.100000     12.000000
 -0.300000  0.500000  0.100000     12.000000
 -0.200000  0.500000  0.100000     12.000000
 -0.100000  0.500000  0.100000      6.000000
 -0.400000 -0.400000  0.100000      6.000000
 -0.300000 -0.400000  0.100000     12.000000
 -0.200000 -0.400000  0.100000     12.000000
 -0.300000 -0.300000  0.100000      6.000000
 -0.200000 -0.300000  0.100000     12.000000
 -0.200000 -0.200000  0.100000      6.000000
  0.200000  0.200000  0.200000      2.000000
  0.300000  0.200000  0.200000      6.000000
  0.400000  0.200000  0.200000      6.000000
  0.500000  0.200000  0.200000      6.000000
 -0.400000  0.200000  0.200000      6.000000
 -0.300000  0.200000  0.200000      6.000000
 -0.200000  0.200000  0.200000      6.000000
  0.300000  0.300000  0.200000      6.000000
  0.400000  0.300000  0.200000     12.000000
  0.500000  0.300000  0.200000     12.000000
 -0.400000  0.300000  0.200000     12.000000
 -0.300000  0.300000  0.200000     12.000000
 -0.200000  0.300000  0.200000     12.000000
  0.400000  0.400000  0.200000      6.000000
  0.500000  0.400000  0.200000     12.000000
 -0.400000  0.400000  0.200000     12.000000
 -0.300000  0.400000  0.200000     12.000000
 -0.200000  0.400000  0.200000     12.000000
  0.500000  0.500000  0.200000      6.000000
 -0.400000  0.500000  0.200000     12.000000
 -0.300000  0.500000  0.200000     12.000000
 -0.200000  0.500000  0.200000      6.000000
 -0.400000 -0.400000  0.200000      6.000000
 -0.300000 -0.400000  0.200000     12.000000
 -0.300000 -0.300000  0.200000      6.000000
  0.300000  0.300000  0.300000      2.000000
  0.400000  0.300000  0.300000      6.000000
  0.500000  0.300000  0.300000      6.000000
 -0.400000  0.300000  0.300000      6.000000
 -0.300000  0.300000  0.300000      6.000000
  0.400000  0.400000  0.300000      6.000000
  0.500000  0.400000  0.300000     12.000000
 -0.400000  0.400000  0.300000     12.000000
 -0.300000  0.400000  0.300000     12.000000
  0.500000  0.500000  0.300000      6.000000
 -0.400000  0.500000  0.300000     12.000000
 -0.300000  0.500000  0.300000      6.000000
 -0.400000 -0.400000  0.300000      6.000000
  0.400000  0.400000  0.400000      2.000000
  0.500000  0.400000  0.400000      6.000000
 -0.400000  0.400000  0.400000      6.000000
  0.500000  0.500000  0.400000      6.000000
 -0.400000  0.500000  0.400000      6.000000
  0.500000  0.500000  0.500000      1.000000
 
 Following cartesian coordinates:
            Coordinates               Weight
  0.000000  0.000000  0.000000      1.000000
  0.035210  0.020328  0.005922      6.000000
  0.070420  0.040657  0.011845      6.000000
  0.105630  0.060985  0.017767      6.000000
  0.140840  0.081314  0.023690      6.000000
  0.176050  0.101642  0.029612      3.000000
  0.000000  0.040657  0.011845      6.000000
  0.035210  0.060985  0.017767     12.000000
  0.070420  0.081314  0.023690     12.000000
  0.105630  0.101642  0.029612     12.000000
  0.140840  0.121971  0.035535     12.000000
 -0.176050 -0.060985 -0.017767     12.000000
 -0.140840 -0.040657 -0.011845     12.000000
 -0.105630 -0.020328 -0.005922     12.000000
 -0.070420  0.000000  0.000000      6.000000
 -0.000000  0.081314  0.023690      6.000000
  0.035210  0.101642  0.029612     12.000000
  0.070420  0.121971  0.035535     12.000000
  0.105630  0.142299  0.041457     12.000000
 -0.211259 -0.040657 -0.011845     12.000000
 -0.176050 -0.020328 -0.005922     12.000000
 -0.140840  0.000000  0.000000      6.000000
  0.000000  0.121971  0.035535      6.000000
  0.035210  0.142299  0.041457     12.000000
  0.070420  0.162628  0.047380     12.000000
 -0.246469 -0.020328 -0.005922     12.000000
 -0.211259 -0.000000  0.000000      6.000000
 -0.000000  0.162628  0.047380      6.000000
  0.035210  0.182956  0.053302     12.000000
 -0.281679  0.000000  0.000000      6.000000
  0.000000  0.203285  0.059225      3.000000
 -0.000000  0.000000  0.017767      2.000000
  0.035210  0.020328  0.023690      6.000000
  0.070420  0.040657  0.029612      6.000000
  0.105630  0.060985  0.035535      6.000000
  0.140840  0.081314  0.041457      6.000000
 -0.176050 -0.101642 -0.011845      6.000000
 -0.140840 -0.081314 -0.005922      6.000000
 -0.105630 -0.060985  0.000000      6.000000
 -0.070420 -0.040657  0.005922      6.000000
  0.000000  0.040657  0.029612      6.000000
  0.035210  0.060985  0.035535     12.000000
  0.070420  0.081314  0.041457     12.000000
  0.105630  0.101642  0.047380     12.000000
 -0.211259 -0.081314 -0.005922     12.000000
 -0.176050 -0.060985  0.000000     12.000000
 -0.140840 -0.040657  0.005922     12.000000
 -0.105630 -0.020328  0.011845     12.000000
  0.000000  0.081314  0.041457      6.000000
  0.035210  0.101642  0.047380     12.000000
  0.070420  0.121971  0.053302     12.000000
 -0.246469 -0.060985  0.000000     12.000000
 -0.211259 -0.040657  0.005922     12.000000
 -0.176050 -0.020328  0.011845     12.000000
 -0.140840 -0.000000  0.017767     12.000000
  0.000000  0.121971  0.053302      6.000000
  0.035210  0.142299  0.059225     12.000000
 -0.281679 -0.040657  0.005922     12.000000
 -0.246469 -0.020328  0.011845     12.000000
 -0.211259 -0.000000  0.017767     12.000000
 -0.176050  0.020328  0.023690     12.000000
  0.000000  0.162628  0.065147      6.000000
 -0.316889 -0.020328  0.011845     12.000000
 -0.281679 -0.000000  0.017767     12.000000
 -0.246469  0.020328  0.023690     12.000000
 -0.211259  0.040657  0.029612      6.000000
  0.000000 -0.203285 -0.041457      6.000000
  0.035210 -0.182956 -0.035535     12.000000
  0.070420 -0.162628 -0.029612     12.000000
  0.000000 -0.162628 -0.029612      6.000000
  0.035210 -0.142299 -0.023690     12.000000
  0.000000 -0.121971 -0.017767      6.000000
  0.000000  0.000000  0.035535      2.000000
  0.035210  0.020328  0.041457      6.000000
  0.070420  0.040657  0.047380      6.000000
  0.105630  0.060985  0.053302      6.000000
 -0.211259 -0.121971  0.000000      6.000000
 -0.176050 -0.101642  0.005922      6.000000
 -0.140840 -0.081314  0.011845      6.000000
  0.000000  0.040657  0.047380      6.000000
  0.035210  0.060985  0.053302     12.000000
  0.070420  0.081314  0.059225     12.000000
 -0.246469 -0.101642  0.005922     12.000000
 -0.211259 -0.081314  0.011845     12.000000
 -0.176050 -0.060985  0.017767     12.000000
  0.000000  0.081314  0.059225      6.000000
  0.035210  0.101642  0.065147     12.000000
 -0.281679 -0.081314  0.011845     12.000000
 -0.246469 -0.060985  0.017767     12.000000
 -0.211259 -0.040657  0.023690     12.000000
  0.000000  0.121971  0.071070      6.000000
 -0.316889 -0.060985  0.017767     12.000000
 -0.281679 -0.040657  0.023690     12.000000
 -0.246469 -0.020328  0.029612      6.000000
  0.000000 -0.243941 -0.035535      6.000000
  0.035210 -0.223613 -0.029612     12.000000
  0.000000 -0.203285 -0.023690      6.000000
  0.000000  0.000000  0.053302      2.000000
  0.035210  0.020328  0.059225      6.000000
  0.070420  0.040657  0.065147      6.000000
 -0.246469 -0.142299  0.011845      6.000000
 -0.211259 -0.121971  0.017767      6.000000
 -0.000000  0.040657  0.065147      6.000000
  0.035210  0.060985  0.071070     12.000000
 -0.281679 -0.121971  0.017767     12.000000
 -0.246469 -0.101642  0.023690     12.000000
  0.000000  0.081314  0.076992      6.000000
 -0.316889 -0.101642  0.023690     12.000000
 -0.281679 -0.081314  0.029612      6.000000
  0.000000 -0.284598 -0.029612      6.000000
  0.000000  0.000000  0.071070      2.000000
  0.035210  0.020328  0.076992      6.000000
 -0.281679 -0.162628  0.023690      6.000000
  0.000000  0.040657  0.082915      6.000000
 -0.316889 -0.142299  0.029612      6.000000
 -0.000000 -0.000000  0.088837      1.000000
 
 
 Subroutine IBZKPT_HF returns following result:
 ==============================================
 
 Found   1000 k-points in 1st BZ
 the following   1000 k-points will be used (e.g. in the exchange kernel)
 Following reciprocal coordinates:   # in IRBZ
  0.000000  0.000000  0.000000    0.00100000   1 t-inv F
  0.100000  0.000000  0.000000    0.00100000   2 t-inv F
  0.200000  0.000000  0.000000    0.00100000   3 t-inv F
  0.300000  0.000000  0.000000    0.00100000   4 t-inv F
  0.400000  0.000000  0.000000    0.00100000   5 t-inv F
  0.500000  0.000000  0.000000    0.00100000   6 t-inv F
  0.100000  0.100000  0.000000    0.00100000   7 t-inv F
  0.200000  0.100000  0.000000    0.00100000   8 t-inv F
  0.300000  0.100000  0.000000    0.00100000   9 t-inv F
  0.400000  0.100000  0.000000    0.00100000  10 t-inv F
  0.500000  0.100000  0.000000    0.00100000  11 t-inv F
 -0.400000  0.100000 -0.000000    0.00100000  12 t-inv F
 -0.300000  0.100000 -0.000000    0.00100000  13 t-inv F
 -0.200000  0.100000 -0.000000    0.00100000  14 t-inv F
 -0.100000  0.100000  0.000000    0.00100000  15 t-inv F
  0.200000  0.200000  0.000000    0.00100000  16 t-inv F
  0.300000  0.200000  0.000000    0.00100000  17 t-inv F
  0.400000  0.200000  0.000000    0.00100000  18 t-inv F
  0.500000  0.200000 -0.000000    0.00100000  19 t-inv F
 -0.400000  0.200000 -0.000000    0.00100000  20 t-inv F
 -0.300000  0.200000 -0.000000    0.00100000  21 t-inv F
 -0.200000  0.200000  0.000000    0.00100000  22 t-inv F
  0.300000  0.300000  0.000000    0.00100000  23 t-inv F
  0.400000  0.300000  0.000000    0.00100000  24 t-inv F
  0.500000  0.300000  0.000000    0.00100000  25 t-inv F
 -0.400000  0.300000  0.000000    0.00100000  26 t-inv F
 -0.300000  0.300000  0.000000    0.00100000  27 t-inv F
  0.400000  0.400000  0.000000    0.00100000  28 t-inv F
  0.500000  0.400000 -0.000000    0.00100000  29 t-inv F
 -0.400000  0.400000  0.000000    0.00100000  30 t-inv F
  0.500000  0.500000  0.000000    0.00100000  31 t-inv F
  0.100000  0.100000  0.100000    0.00100000  32 t-inv F
  0.200000  0.100000  0.100000    0.00100000  33 t-inv F
  0.300000  0.100000  0.100000    0.00100000  34 t-inv F
  0.400000  0.100000  0.100000    0.00100000  35 t-inv F
  0.500000  0.100000  0.100000    0.00100000  36 t-inv F
 -0.400000  0.100000  0.100000    0.00100000  37 t-inv F
 -0.300000  0.100000  0.100000    0.00100000  38 t-inv F
 -0.200000  0.100000  0.100000    0.00100000  39 t-inv F
 -0.100000  0.100000  0.100000    0.00100000  40 t-inv F
  0.200000  0.200000  0.100000    0.00100000  41 t-inv F
  0.300000  0.200000  0.100000    0.00100000  42 t-inv F
  0.400000  0.200000  0.100000    0.00100000  43 t-inv F
  0.500000  0.200000  0.100000    0.00100000  44 t-inv F
 -0.400000  0.200000  0.100000    0.00100000  45 t-inv F
 -0.300000  0.200000  0.100000    0.00100000  46 t-inv F
 -0.200000  0.200000  0.100000    0.00100000  47 t-inv F
 -0.100000  0.200000  0.100000    0.00100000  48 t-inv F
  0.300000  0.300000  0.100000    0.00100000  49 t-inv F
  0.400000  0.300000  0.100000    0.00100000  50 t-inv F
  0.500000  0.300000  0.100000    0.00100000  51 t-inv F
 -0.400000  0.300000  0.100000    0.00100000  52 t-inv F
 -0.300000  0.300000  0.100000    0.00100000  53 t-inv F
 -0.200000  0.300000  0.100000    0.00100000  54 t-inv F
 -0.100000  0.300000  0.100000    0.00100000  55 t-inv F
  0.400000  0.400000  0.100000    0.00100000  56 t-inv F
  0.500000  0.400000  0.100000    0.00100000  57 t-inv F
 -0.400000  0.400000  0.100000    0.00100000  58 t-inv F
 -0.300000  0.400000  0.100000    0.00100000  59 t-inv F
 -0.200000  0.400000  0.100000    0.00100000  60 t-inv F
 -0.100000  0.400000  0.100000    0.00100000  61 t-inv F
  0.500000  0.500000  0.100000    0.00100000  62 t-inv F
 -0.400000  0.500000  0.100000    0.00100000  63 t-inv F
 -0.300000  0.500000  0.100000    0.00100000  64 t-inv F
 -0.200000  0.500000  0.100000    0.00100000  65 t-inv F
 -0.100000  0.500000  0.100000    0.00100000  66 t-inv F
 -0.400000 -0.400000  0.100000    0.00100000  67 t-inv F
 -0.300000 -0.400000  0.100000    0.00100000  68 t-inv F
 -0.200000 -0.400000  0.100000    0.00100000  69 t-inv F
 -0.300000 -0.300000  0.100000    0.00100000  70 t-inv F
 -0.200000 -0.300000  0.100000    0.00100000  71 t-inv F
 -0.200000 -0.200000  0.100000    0.00100000  72 t-inv F
  0.200000  0.200000  0.200000    0.00100000  73 t-inv F
  0.300000  0.200000  0.200000    0.00100000  74 t-inv F
  0.400000  0.200000  0.200000    0.00100000  75 t-inv F
  0.500000  0.200000  0.200000    0.00100000  76 t-inv F
 -0.400000  0.200000  0.200000    0.00100000  77 t-inv F
 -0.300000  0.200000  0.200000    0.00100000  78 t-inv F
 -0.200000  0.200000  0.200000    0.00100000  79 t-inv F
  0.300000  0.300000  0.200000    0.00100000  80 t-inv F
  0.400000  0.300000  0.200000    0.00100000  81 t-inv F
  0.500000  0.300000  0.200000    0.00100000  82 t-inv F
 -0.400000  0.300000  0.200000    0.00100000  83 t-inv F
 -0.300000  0.300000  0.200000    0.00100000  84 t-inv F
 -0.200000  0.300000  0.200000    0.00100000  85 t-inv F
  0.400000  0.400000  0.200000    0.00100000  86 t-inv F
  0.500000  0.400000  0.200000    0.00100000  87 t-inv F
 -0.400000  0.400000  0.200000    0.00100000  88 t-inv F
 -0.300000  0.400000  0.200000    0.00100000  89 t-inv F
 -0.200000  0.400000  0.200000    0.00100000  90 t-inv F
  0.500000  0.500000  0.200000    0.00100000  91 t-inv F
 -0.400000  0.500000  0.200000    0.00100000  92 t-inv F
 -0.300000  0.500000  0.200000    0.00100000  93 t-inv F
 -0.200000  0.500000  0.200000    0.00100000  94 t-inv F
 -0.400000 -0.400000  0.200000    0.00100000  95 t-inv F
 -0.300000 -0.400000  0.200000    0.00100000  96 t-inv F
 -0.300000 -0.300000  0.200000    0.00100000  97 t-inv F
  0.300000  0.300000  0.300000    0.00100000  98 t-inv F
  0.400000  0.300000  0.300000    0.00100000  99 t-inv F
  0.500000  0.300000  0.300000    0.00100000 100 t-inv F
 -0.400000  0.300000  0.300000    0.00100000 101 t-inv F
 -0.300000  0.300000  0.300000    0.00100000 102 t-inv F
  0.400000  0.400000  0.300000    0.00100000 103 t-inv F
  0.500000  0.400000  0.300000    0.00100000 104 t-inv F
 -0.400000  0.400000  0.300000    0.00100000 105 t-inv F
 -0.300000  0.400000  0.300000    0.00100000 106 t-inv F
  0.500000  0.500000  0.300000    0.00100000 107 t-inv F
 -0.400000  0.500000  0.300000    0.00100000 108 t-inv F
 -0.300000  0.500000  0.300000    0.00100000 109 t-inv F
 -0.400000 -0.400000  0.300000    0.00100000 110 t-inv F
  0.400000  0.400000  0.400000    0.00100000 111 t-inv F
  0.500000  0.400000  0.400000    0.00100000 112 t-inv F
 -0.400000  0.400000  0.400000    0.00100000 113 t-inv F
  0.500000  0.500000  0.400000    0.00100000 114 t-inv F
 -0.400000  0.500000  0.400000    0.00100000 115 t-inv F
  0.500000  0.500000  0.500000    0.00100000 116 t-inv F
 -0.100000 -0.000000 -0.000000    0.00100000   2 t-inv F
  0.000000  0.100000  0.000000    0.00100000   2 t-inv F
 -0.000000 -0.100000 -0.000000    0.00100000   2 t-inv F
  0.000000  0.000000  0.100000    0.00100000   2 t-inv F
 -0.000000 -0.000000 -0.100000    0.00100000   2 t-inv F
 -0.200000 -0.000000 -0.000000    0.00100000   3 t-inv F
  0.000000  0.200000  0.000000    0.00100000   3 t-inv F
 -0.000000 -0.200000 -0.000000    0.00100000   3 t-inv F
  0.000000  0.000000  0.200000    0.00100000   3 t-inv F
 -0.000000 -0.000000 -0.200000    0.00100000   3 t-inv F
 -0.300000 -0.000000 -0.000000    0.00100000   4 t-inv F
  0.000000  0.300000  0.000000    0.00100000   4 t-inv F
 -0.000000 -0.300000 -0.000000    0.00100000   4 t-inv F
  0.000000  0.000000  0.300000    0.00100000   4 t-inv F
 -0.000000 -0.000000 -0.300000    0.00100000   4 t-inv F
 -0.400000 -0.000000 -0.000000    0.00100000   5 t-inv F
  0.000000  0.400000  0.000000    0.00100000   5 t-inv F
 -0.000000 -0.400000 -0.000000    0.00100000   5 t-inv F
  0.000000  0.000000  0.400000    0.00100000   5 t-inv F
 -0.000000 -0.000000 -0.400000    0.00100000   5 t-inv F
  0.000000  0.500000  0.000000    0.00100000   6 t-inv F
  0.000000  0.000000  0.500000    0.00100000   6 t-inv F
 -0.100000 -0.100000 -0.000000    0.00100000   7 t-inv F
 -0.100000 -0.000000 -0.100000    0.00100000   7 t-inv F
  0.100000  0.000000  0.100000    0.00100000   7 t-inv F
  0.000000  0.100000  0.100000    0.00100000   7 t-inv F
 -0.000000 -0.100000 -0.100000    0.00100000   7 t-inv F
 -0.200000 -0.100000 -0.000000    0.00100000   8 t-inv F
 -0.200000 -0.000000 -0.100000    0.00100000   8 t-inv F
  0.200000  0.000000  0.100000    0.00100000   8 t-inv F
  0.000000  0.200000  0.100000    0.00100000   8 t-inv F
 -0.000000 -0.200000 -0.100000    0.00100000   8 t-inv F
 -0.100000 -0.200000 -0.000000    0.00100000   8 t-inv F
  0.100000  0.200000  0.000000    0.00100000   8 t-inv F
  0.100000  0.000000  0.200000    0.00100000   8 t-inv F
 -0.100000 -0.000000 -0.200000    0.00100000   8 t-inv F
 -0.000000 -0.100000 -0.200000    0.00100000   8 t-inv F
  0.000000  0.100000  0.200000    0.00100000   8 t-inv F
 -0.300000 -0.100000 -0.000000    0.00100000   9 t-inv F
 -0.300000 -0.000000 -0.100000    0.00100000   9 t-inv F
  0.300000  0.000000  0.100000    0.00100000   9 t-inv F
  0.000000  0.300000  0.100000    0.00100000   9 t-inv F
 -0.000000 -0.300000 -0.100000    0.00100000   9 t-inv F
 -0.100000 -0.300000 -0.000000    0.00100000   9 t-inv F
  0.100000  0.300000  0.000000    0.00100000   9 t-inv F
  0.100000  0.000000  0.300000    0.00100000   9 t-inv F
 -0.100000 -0.000000 -0.300000    0.00100000   9 t-inv F
 -0.000000 -0.100000 -0.300000    0.00100000   9 t-inv F
  0.000000  0.100000  0.300000    0.00100000   9 t-inv F
 -0.400000 -0.100000 -0.000000    0.00100000  10 t-inv F
 -0.400000 -0.000000 -0.100000    0.00100000  10 t-inv F
  0.400000  0.000000  0.100000    0.00100000  10 t-inv F
  0.000000  0.400000  0.100000    0.00100000  10 t-inv F
 -0.000000 -0.400000 -0.100000    0.00100000  10 t-inv F
 -0.100000 -0.400000 -0.000000    0.00100000  10 t-inv F
  0.100000  0.400000  0.000000    0.00100000  10 t-inv F
  0.100000  0.000000  0.400000    0.00100000  10 t-inv F
 -0.100000 -0.000000 -0.400000    0.00100000  10 t-inv F
 -0.000000 -0.100000 -0.400000    0.00100000  10 t-inv F
  0.000000  0.100000  0.400000    0.00100000  10 t-inv F
 -0.500000 -0.100000 -0.000000    0.00100000  11 t-inv F
 -0.500000 -0.000000 -0.100000    0.00100000  11 t-inv F
  0.500000  0.000000  0.100000    0.00100000  11 t-inv F
  0.000000  0.500000  0.100000    0.00100000  11 t-inv F
 -0.000000 -0.500000 -0.100000    0.00100000  11 t-inv F
 -0.100000 -0.500000 -0.000000    0.00100000  11 t-inv F
  0.100000  0.500000  0.000000    0.00100000  11 t-inv F
  0.100000  0.000000  0.500000    0.00100000  11 t-inv F
 -0.100000 -0.000000 -0.500000    0.00100000  11 t-inv F
 -0.000000 -0.100000 -0.500000    0.00100000  11 t-inv F
  0.000000  0.100000  0.500000    0.00100000  11 t-inv F
  0.400000 -0.100000  0.000000    0.00100000  12 t-inv F
  0.400000  0.000000 -0.100000    0.00100000  12 t-inv F
 -0.400000 -0.000000  0.100000    0.00100000  12 t-inv F
 -0.000000 -0.400000  0.100000    0.00100000  12 t-inv F
  0.000000  0.400000 -0.100000    0.00100000  12 t-inv F
 -0.100000  0.400000  0.000000    0.00100000  12 t-inv F
  0.100000 -0.400000 -0.000000    0.00100000  12 t-inv F
  0.100000 -0.000000 -0.400000    0.00100000  12 t-inv F
 -0.100000  0.000000  0.400000    0.00100000  12 t-inv F
  0.000000 -0.100000  0.400000    0.00100000  12 t-inv F
 -0.000000  0.100000 -0.400000    0.00100000  12 t-inv F
  0.300000 -0.100000  0.000000    0.00100000  13 t-inv F
  0.300000  0.000000 -0.100000    0.00100000  13 t-inv F
 -0.300000 -0.000000  0.100000    0.00100000  13 t-inv F
 -0.000000 -0.300000  0.100000    0.00100000  13 t-inv F
  0.000000  0.300000 -0.100000    0.00100000  13 t-inv F
 -0.100000  0.300000  0.000000    0.00100000  13 t-inv F
  0.100000 -0.300000 -0.000000    0.00100000  13 t-inv F
  0.100000 -0.000000 -0.300000    0.00100000  13 t-inv F
 -0.100000  0.000000  0.300000    0.00100000  13 t-inv F
  0.000000 -0.100000  0.300000    0.00100000  13 t-inv F
 -0.000000  0.100000 -0.300000    0.00100000  13 t-inv F
  0.200000 -0.100000  0.000000    0.00100000  14 t-inv F
  0.200000  0.000000 -0.100000    0.00100000  14 t-inv F
 -0.200000 -0.000000  0.100000    0.00100000  14 t-inv F
 -0.000000 -0.200000  0.100000    0.00100000  14 t-inv F
  0.000000  0.200000 -0.100000    0.00100000  14 t-inv F
 -0.100000  0.200000  0.000000    0.00100000  14 t-inv F
  0.100000 -0.200000 -0.000000    0.00100000  14 t-inv F
  0.100000 -0.000000 -0.200000    0.00100000  14 t-inv F
 -0.100000  0.000000  0.200000    0.00100000  14 t-inv F
  0.000000 -0.100000  0.200000    0.00100000  14 t-inv F
 -0.000000  0.100000 -0.200000    0.00100000  14 t-inv F
  0.100000 -0.100000 -0.000000    0.00100000  15 t-inv F
  0.100000 -0.000000 -0.100000    0.00100000  15 t-inv F
 -0.100000  0.000000  0.100000    0.00100000  15 t-inv F
  0.000000 -0.100000  0.100000    0.00100000  15 t-inv F
 -0.000000  0.100000 -0.100000    0.00100000  15 t-inv F
 -0.200000 -0.200000 -0.000000    0.00100000  16 t-inv F
 -0.200000 -0.000000 -0.200000    0.00100000  16 t-inv F
  0.200000  0.000000  0.200000    0.00100000  16 t-inv F
  0.000000  0.200000  0.200000    0.00100000  16 t-inv F
 -0.000000 -0.200000 -0.200000    0.00100000  16 t-inv F
 -0.300000 -0.200000 -0.000000    0.00100000  17 t-inv F
 -0.300000 -0.000000 -0.200000    0.00100000  17 t-inv F
  0.300000  0.000000  0.200000    0.00100000  17 t-inv F
  0.000000  0.300000  0.200000    0.00100000  17 t-inv F
 -0.000000 -0.300000 -0.200000    0.00100000  17 t-inv F
 -0.200000 -0.300000 -0.000000    0.00100000  17 t-inv F
  0.200000  0.300000  0.000000    0.00100000  17 t-inv F
  0.200000  0.000000  0.300000    0.00100000  17 t-inv F
 -0.200000 -0.000000 -0.300000    0.00100000  17 t-inv F
 -0.000000 -0.200000 -0.300000    0.00100000  17 t-inv F
  0.000000  0.200000  0.300000    0.00100000  17 t-inv F
 -0.400000 -0.200000 -0.000000    0.00100000  18 t-inv F
 -0.400000 -0.000000 -0.200000    0.00100000  18 t-inv F
  0.400000  0.000000  0.200000    0.00100000  18 t-inv F
  0.000000  0.400000  0.200000    0.00100000  18 t-inv F
 -0.000000 -0.400000 -0.200000    0.00100000  18 t-inv F
 -0.200000 -0.400000 -0.000000    0.00100000  18 t-inv F
  0.200000  0.400000  0.000000    0.00100000  18 t-inv F
  0.200000  0.000000  0.400000    0.00100000  18 t-inv F
 -0.200000 -0.000000 -0.400000    0.00100000  18 t-inv F
 -0.000000 -0.200000 -0.400000    0.00100000  18 t-inv F
  0.000000  0.200000  0.400000    0.00100000  18 t-inv F
 -0.500000 -0.200000  0.000000    0.00100000  19 t-inv F
 -0.500000  0.000000 -0.200000    0.00100000  19 t-inv F
  0.500000 -0.000000  0.200000    0.00100000  19 t-inv F
 -0.000000  0.500000  0.200000    0.00100000  19 t-inv F
  0.000000 -0.500000 -0.200000    0.00100000  19 t-inv F
 -0.200000 -0.500000  0.000000    0.00100000  19 t-inv F
  0.200000  0.500000 -0.000000    0.00100000  19 t-inv F
  0.200000 -0.000000  0.500000    0.00100000  19 t-inv F
 -0.200000  0.000000 -0.500000    0.00100000  19 t-inv F
  0.000000 -0.200000 -0.500000    0.00100000  19 t-inv F
 -0.000000  0.200000  0.500000    0.00100000  19 t-inv F
  0.400000 -0.200000  0.000000    0.00100000  20 t-inv F
  0.400000  0.000000 -0.200000    0.00100000  20 t-inv F
 -0.400000 -0.000000  0.200000    0.00100000  20 t-inv F
 -0.000000 -0.400000  0.200000    0.00100000  20 t-inv F
  0.000000  0.400000 -0.200000    0.00100000  20 t-inv F
 -0.200000  0.400000  0.000000    0.00100000  20 t-inv F
  0.200000 -0.400000 -0.000000    0.00100000  20 t-inv F
  0.200000 -0.000000 -0.400000    0.00100000  20 t-inv F
 -0.200000  0.000000  0.400000    0.00100000  20 t-inv F
  0.000000 -0.200000  0.400000    0.00100000  20 t-inv F
 -0.000000  0.200000 -0.400000    0.00100000  20 t-inv F
  0.300000 -0.200000  0.000000    0.00100000  21 t-inv F
  0.300000  0.000000 -0.200000    0.00100000  21 t-inv F
 -0.300000 -0.000000  0.200000    0.00100000  21 t-inv F
 -0.000000 -0.300000  0.200000    0.00100000  21 t-inv F
  0.000000  0.300000 -0.200000    0.00100000  21 t-inv F
 -0.200000  0.300000  0.000000    0.00100000  21 t-inv F
  0.200000 -0.300000 -0.000000    0.00100000  21 t-inv F
  0.200000 -0.000000 -0.300000    0.00100000  21 t-inv F
 -0.200000  0.000000  0.300000    0.00100000  21 t-inv F
  0.000000 -0.200000  0.300000    0.00100000  21 t-inv F
 -0.000000  0.200000 -0.300000    0.00100000  21 t-inv F
  0.200000 -0.200000 -0.000000    0.00100000  22 t-inv F
  0.200000 -0.000000 -0.200000    0.00100000  22 t-inv F
 -0.200000  0.000000  0.200000    0.00100000  22 t-inv F
  0.000000 -0.200000  0.200000    0.00100000  22 t-inv F
 -0.000000  0.200000 -0.200000    0.00100000  22 t-inv F
 -0.300000 -0.300000 -0.000000    0.00100000  23 t-inv F
 -0.300000 -0.000000 -0.300000    0.00100000  23 t-inv F
  0.300000  0.000000  0.300000    0.00100000  23 t-inv F
  0.000000  0.300000  0.300000    0.00100000  23 t-inv F
 -0.000000 -0.300000 -0.300000    0.00100000  23 t-inv F
 -0.400000 -0.300000 -0.000000    0.00100000  24 t-inv F
 -0.400000 -0.000000 -0.300000    0.00100000  24 t-inv F
  0.400000  0.000000  0.300000    0.00100000  24 t-inv F
  0.000000  0.400000  0.300000    0.00100000  24 t-inv F
 -0.000000 -0.400000 -0.300000    0.00100000  24 t-inv F
 -0.300000 -0.400000 -0.000000    0.00100000  24 t-inv F
  0.300000  0.400000  0.000000    0.00100000  24 t-inv F
  0.300000  0.000000  0.400000    0.00100000  24 t-inv F
 -0.300000 -0.000000 -0.400000    0.00100000  24 t-inv F
 -0.000000 -0.300000 -0.400000    0.00100000  24 t-inv F
  0.000000  0.300000  0.400000    0.00100000  24 t-inv F
 -0.500000 -0.300000 -0.000000    0.00100000  25 t-inv F
 -0.500000 -0.000000 -0.300000    0.00100000  25 t-inv F
  0.500000  0.000000  0.300000    0.00100000  25 t-inv F
  0.000000  0.500000  0.300000    0.00100000  25 t-inv F
 -0.000000 -0.500000 -0.300000    0.00100000  25 t-inv F
 -0.300000 -0.500000 -0.000000    0.00100000  25 t-inv F
  0.300000  0.500000  0.000000    0.00100000  25 t-inv F
  0.300000  0.000000  0.500000    0.00100000  25 t-inv F
 -0.300000 -0.000000 -0.500000    0.00100000  25 t-inv F
 -0.000000 -0.300000 -0.500000    0.00100000  25 t-inv F
  0.000000  0.300000  0.500000    0.00100000  25 t-inv F
  0.400000 -0.300000 -0.000000    0.00100000  26 t-inv F
  0.400000 -0.000000 -0.300000    0.00100000  26 t-inv F
 -0.400000  0.000000  0.300000    0.00100000  26 t-inv F
  0.000000 -0.400000  0.300000    0.00100000  26 t-inv F
 -0.000000  0.400000 -0.300000    0.00100000  26 t-inv F
 -0.300000  0.400000 -0.000000    0.00100000  26 t-inv F
  0.300000 -0.400000  0.000000    0.00100000  26 t-inv F
  0.300000  0.000000 -0.400000    0.00100000  26 t-inv F
 -0.300000 -0.000000  0.400000    0.00100000  26 t-inv F
 -0.000000 -0.300000  0.400000    0.00100000  26 t-inv F
  0.000000  0.300000 -0.400000    0.00100000  26 t-inv F
  0.300000 -0.300000 -0.000000    0.00100000  27 t-inv F
  0.300000 -0.000000 -0.300000    0.00100000  27 t-inv F
 -0.300000  0.000000  0.300000    0.00100000  27 t-inv F
  0.000000 -0.300000  0.300000    0.00100000  27 t-inv F
 -0.000000  0.300000 -0.300000    0.00100000  27 t-inv F
 -0.400000 -0.400000 -0.000000    0.00100000  28 t-inv F
 -0.400000 -0.000000 -0.400000    0.00100000  28 t-inv F
  0.400000  0.000000  0.400000    0.00100000  28 t-inv F
  0.000000  0.400000  0.400000    0.00100000  28 t-inv F
 -0.000000 -0.400000 -0.400000    0.00100000  28 t-inv F
 -0.500000 -0.400000  0.000000    0.00100000  29 t-inv F
 -0.500000  0.000000 -0.400000    0.00100000  29 t-inv F
  0.500000 -0.000000  0.400000    0.00100000  29 t-inv F
 -0.000000  0.500000  0.400000    0.00100000  29 t-inv F
  0.000000 -0.500000 -0.400000    0.00100000  29 t-inv F
 -0.400000 -0.500000  0.000000    0.00100000  29 t-inv F
  0.400000  0.500000 -0.000000    0.00100000  29 t-inv F
  0.400000 -0.000000  0.500000    0.00100000  29 t-inv F
 -0.400000  0.000000 -0.500000    0.00100000  29 t-inv F
  0.000000 -0.400000 -0.500000    0.00100000  29 t-inv F
 -0.000000  0.400000  0.500000    0.00100000  29 t-inv F
  0.400000 -0.400000 -0.000000    0.00100000  30 t-inv F
  0.400000 -0.000000 -0.400000    0.00100000  30 t-inv F
 -0.400000  0.000000  0.400000    0.00100000  30 t-inv F
  0.000000 -0.400000  0.400000    0.00100000  30 t-inv F
 -0.000000  0.400000 -0.400000    0.00100000  30 t-inv F
 -0.500000 -0.000000 -0.500000    0.00100000  31 t-inv F
  0.000000  0.500000  0.500000    0.00100000  31 t-inv F
 -0.100000 -0.100000 -0.100000    0.00100000  32 t-inv F
 -0.200000 -0.100000 -0.100000    0.00100000  33 t-inv F
  0.100000  0.200000  0.100000    0.00100000  33 t-inv F
 -0.100000 -0.200000 -0.100000    0.00100000  33 t-inv F
  0.100000  0.100000  0.200000    0.00100000  33 t-inv F
 -0.100000 -0.100000 -0.200000    0.00100000  33 t-inv F
 -0.300000 -0.100000 -0.100000    0.00100000  34 t-inv F
  0.100000  0.300000  0.100000    0.00100000  34 t-inv F
 -0.100000 -0.300000 -0.100000    0.00100000  34 t-inv F
  0.100000  0.100000  0.300000    0.00100000  34 t-inv F
 -0.100000 -0.100000 -0.300000    0.00100000  34 t-inv F
 -0.400000 -0.100000 -0.100000    0.00100000  35 t-inv F
  0.100000  0.400000  0.100000    0.00100000  35 t-inv F
 -0.100000 -0.400000 -0.100000    0.00100000  35 t-inv F
  0.100000  0.100000  0.400000    0.00100000  35 t-inv F
 -0.100000 -0.100000 -0.400000    0.00100000  35 t-inv F
 -0.500000 -0.100000 -0.100000    0.00100000  36 t-inv F
  0.100000  0.500000  0.100000    0.00100000  36 t-inv F
 -0.100000 -0.500000 -0.100000    0.00100000  36 t-inv F
  0.100000  0.100000  0.500000    0.00100000  36 t-inv F
 -0.100000 -0.100000 -0.500000    0.00100000  36 t-inv F
  0.400000 -0.100000 -0.100000    0.00100000  37 t-inv F
  0.100000 -0.400000  0.100000    0.00100000  37 t-inv F
 -0.100000  0.400000 -0.100000    0.00100000  37 t-inv F
  0.100000  0.100000 -0.400000    0.00100000  37 t-inv F
 -0.100000 -0.100000  0.400000    0.00100000  37 t-inv F
  0.300000 -0.100000 -0.100000    0.00100000  38 t-inv F
  0.100000 -0.300000  0.100000    0.00100000  38 t-inv F
 -0.100000  0.300000 -0.100000    0.00100000  38 t-inv F
  0.100000  0.100000 -0.300000    0.00100000  38 t-inv F
 -0.100000 -0.100000  0.300000    0.00100000  38 t-inv F
  0.200000 -0.100000 -0.100000    0.00100000  39 t-inv F
  0.100000 -0.200000  0.100000    0.00100000  39 t-inv F
 -0.100000  0.200000 -0.100000    0.00100000  39 t-inv F
  0.100000  0.100000 -0.200000    0.00100000  39 t-inv F
 -0.100000 -0.100000  0.200000    0.00100000  39 t-inv F
  0.100000 -0.100000 -0.100000    0.00100000  40 t-inv F
  0.100000 -0.100000  0.100000    0.00100000  40 t-inv F
 -0.100000  0.100000 -0.100000    0.00100000  40 t-inv F
  0.100000  0.100000 -0.100000    0.00100000  40 t-inv F
 -0.100000 -0.100000  0.100000    0.00100000  40 t-inv F
 -0.200000 -0.200000 -0.100000    0.00100000  41 t-inv F
 -0.200000 -0.100000 -0.200000    0.00100000  41 t-inv F
  0.200000  0.100000  0.200000    0.00100000  41 t-inv F
  0.100000  0.200000  0.200000    0.00100000  41 t-inv F
 -0.100000 -0.200000 -0.200000    0.00100000  41 t-inv F
 -0.300000 -0.200000 -0.100000    0.00100000  42 t-inv F
 -0.300000 -0.100000 -0.200000    0.00100000  42 t-inv F
  0.300000  0.100000  0.200000    0.00100000  42 t-inv F
  0.100000  0.300000  0.200000    0.00100000  42 t-inv F
 -0.100000 -0.300000 -0.200000    0.00100000  42 t-inv F
 -0.200000 -0.300000 -0.100000    0.00100000  42 t-inv F
  0.200000  0.300000  0.100000    0.00100000  42 t-inv F
  0.200000  0.100000  0.300000    0.00100000  42 t-inv F
 -0.200000 -0.100000 -0.300000    0.00100000  42 t-inv F
 -0.100000 -0.200000 -0.300000    0.00100000  42 t-inv F
  0.100000  0.200000  0.300000    0.00100000  42 t-inv F
 -0.400000 -0.200000 -0.100000    0.00100000  43 t-inv F
 -0.400000 -0.100000 -0.200000    0.00100000  43 t-inv F
  0.400000  0.100000  0.200000    0.00100000  43 t-inv F
  0.100000  0.400000  0.200000    0.00100000  43 t-inv F
 -0.100000 -0.400000 -0.200000    0.00100000  43 t-inv F
 -0.200000 -0.400000 -0.100000    0.00100000  43 t-inv F
  0.200000  0.400000  0.100000    0.00100000  43 t-inv F
  0.200000  0.100000  0.400000    0.00100000  43 t-inv F
 -0.200000 -0.100000 -0.400000    0.00100000  43 t-inv F
 -0.100000 -0.200000 -0.400000    0.00100000  43 t-inv F
  0.100000  0.200000  0.400000    0.00100000  43 t-inv F
 -0.500000 -0.200000 -0.100000    0.00100000  44 t-inv F
 -0.500000 -0.100000 -0.200000    0.00100000  44 t-inv F
  0.500000  0.100000  0.200000    0.00100000  44 t-inv F
  0.100000  0.500000  0.200000    0.00100000  44 t-inv F
 -0.100000 -0.500000 -0.200000    0.00100000  44 t-inv F
 -0.200000 -0.500000 -0.100000    0.00100000  44 t-inv F
  0.200000  0.500000  0.100000    0.00100000  44 t-inv F
  0.200000  0.100000  0.500000    0.00100000  44 t-inv F
 -0.200000 -0.100000 -0.500000    0.00100000  44 t-inv F
 -0.100000 -0.200000 -0.500000    0.00100000  44 t-inv F
  0.100000  0.200000  0.500000    0.00100000  44 t-inv F
  0.400000 -0.200000 -0.100000    0.00100000  45 t-inv F
  0.400000 -0.100000 -0.200000    0.00100000  45 t-inv F
 -0.400000  0.100000  0.200000    0.00100000  45 t-inv F
  0.100000 -0.400000  0.200000    0.00100000  45 t-inv F
 -0.100000  0.400000 -0.200000    0.00100000  45 t-inv F
 -0.200000  0.400000 -0.100000    0.00100000  45 t-inv F
  0.200000 -0.400000  0.100000    0.00100000  45 t-inv F
  0.200000  0.100000 -0.400000    0.00100000  45 t-inv F
 -0.200000 -0.100000  0.400000    0.00100000  45 t-inv F
 -0.100000 -0.200000  0.400000    0.00100000  45 t-inv F
  0.100000  0.200000 -0.400000    0.00100000  45 t-inv F
  0.300000 -0.200000 -0.100000    0.00100000  46 t-inv F
  0.300000 -0.100000 -0.200000    0.00100000  46 t-inv F
 -0.300000  0.100000  0.200000    0.00100000  46 t-inv F
  0.100000 -0.300000  0.200000    0.00100000  46 t-inv F
 -0.100000  0.300000 -0.200000    0.00100000  46 t-inv F
 -0.200000  0.300000 -0.100000    0.00100000  46 t-inv F
  0.200000 -0.300000  0.100000    0.00100000  46 t-inv F
  0.200000  0.100000 -0.300000    0.00100000  46 t-inv F
 -0.200000 -0.100000  0.300000    0.00100000  46 t-inv F
 -0.100000 -0.200000  0.300000    0.00100000  46 t-inv F
  0.100000  0.200000 -0.300000    0.00100000  46 t-inv F
  0.200000 -0.200000 -0.100000    0.00100000  47 t-inv F
  0.200000 -0.100000 -0.200000    0.00100000  47 t-inv F
 -0.200000  0.100000  0.200000    0.00100000  47 t-inv F
  0.100000 -0.200000  0.200000    0.00100000  47 t-inv F
 -0.100000  0.200000 -0.200000    0.00100000  47 t-inv F
 -0.200000  0.200000 -0.100000    0.00100000  47 t-inv F
  0.200000 -0.200000  0.100000    0.00100000  47 t-inv F
  0.200000  0.100000 -0.200000    0.00100000  47 t-inv F
 -0.200000 -0.100000  0.200000    0.00100000  47 t-inv F
 -0.100000 -0.200000  0.200000    0.00100000  47 t-inv F
  0.100000  0.200000 -0.200000    0.00100000  47 t-inv F
  0.100000 -0.200000 -0.100000    0.00100000  48 t-inv F
  0.100000 -0.100000 -0.200000    0.00100000  48 t-inv F
 -0.100000  0.100000  0.200000    0.00100000  48 t-inv F
  0.100000 -0.100000  0.200000    0.00100000  48 t-inv F
 -0.100000  0.100000 -0.200000    0.00100000  48 t-inv F
 -0.200000  0.100000 -0.100000    0.00100000  48 t-inv F
  0.200000 -0.100000  0.100000    0.00100000  48 t-inv F
  0.200000  0.100000 -0.100000    0.00100000  48 t-inv F
 -0.200000 -0.100000  0.100000    0.00100000  48 t-inv F
 -0.100000 -0.200000  0.100000    0.00100000  48 t-inv F
  0.100000  0.200000 -0.100000    0.00100000  48 t-inv F
 -0.300000 -0.300000 -0.100000    0.00100000  49 t-inv F
 -0.300000 -0.100000 -0.300000    0.00100000  49 t-inv F
  0.300000  0.100000  0.300000    0.00100000  49 t-inv F
  0.100000  0.300000  0.300000    0.00100000  49 t-inv F
 -0.100000 -0.300000 -0.300000    0.00100000  49 t-inv F
 -0.400000 -0.300000 -0.100000    0.00100000  50 t-inv F
 -0.400000 -0.100000 -0.300000    0.00100000  50 t-inv F
  0.400000  0.100000  0.300000    0.00100000  50 t-inv F
  0.100000  0.400000  0.300000    0.00100000  50 t-inv F
 -0.100000 -0.400000 -0.300000    0.00100000  50 t-inv F
 -0.300000 -0.400000 -0.100000    0.00100000  50 t-inv F
  0.300000  0.400000  0.100000    0.00100000  50 t-inv F
  0.300000  0.100000  0.400000    0.00100000  50 t-inv F
 -0.300000 -0.100000 -0.400000    0.00100000  50 t-inv F
 -0.100000 -0.300000 -0.400000    0.00100000  50 t-inv F
  0.100000  0.300000  0.400000    0.00100000  50 t-inv F
 -0.500000 -0.300000 -0.100000    0.00100000  51 t-inv F
 -0.500000 -0.100000 -0.300000    0.00100000  51 t-inv F
  0.500000  0.100000  0.300000    0.00100000  51 t-inv F
  0.100000  0.500000  0.300000    0.00100000  51 t-inv F
 -0.100000 -0.500000 -0.300000    0.00100000  51 t-inv F
 -0.300000 -0.500000 -0.100000    0.00100000  51 t-inv F
  0.300000  0.500000  0.100000    0.00100000  51 t-inv F
  0.300000  0.100000  0.500000    0.00100000  51 t-inv F
 -0.300000 -0.100000 -0.500000    0.00100000  51 t-inv F
 -0.100000 -0.300000 -0.500000    0.00100000  51 t-inv F
  0.100000  0.300000  0.500000    0.00100000  51 t-inv F
  0.400000 -0.300000 -0.100000    0.00100000  52 t-inv F
  0.400000 -0.100000 -0.300000    0.00100000  52 t-inv F
 -0.400000  0.100000  0.300000    0.00100000  52 t-inv F
  0.100000 -0.400000  0.300000    0.00100000  52 t-inv F
 -0.100000  0.400000 -0.300000    0.00100000  52 t-inv F
 -0.300000  0.400000 -0.100000    0.00100000  52 t-inv F
  0.300000 -0.400000  0.100000    0.00100000  52 t-inv F
  0.300000  0.100000 -0.400000    0.00100000  52 t-inv F
 -0.300000 -0.100000  0.400000    0.00100000  52 t-inv F
 -0.100000 -0.300000  0.400000    0.00100000  52 t-inv F
  0.100000  0.300000 -0.400000    0.00100000  52 t-inv F
  0.300000 -0.300000 -0.100000    0.00100000  53 t-inv F
  0.300000 -0.100000 -0.300000    0.00100000  53 t-inv F
 -0.300000  0.100000  0.300000    0.00100000  53 t-inv F
  0.100000 -0.300000  0.300000    0.00100000  53 t-inv F
 -0.100000  0.300000 -0.300000    0.00100000  53 t-inv F
 -0.300000  0.300000 -0.100000    0.00100000  53 t-inv F
  0.300000 -0.300000  0.100000    0.00100000  53 t-inv F
  0.300000  0.100000 -0.300000    0.00100000  53 t-inv F
 -0.300000 -0.100000  0.300000    0.00100000  53 t-inv F
 -0.100000 -0.300000  0.300000    0.00100000  53 t-inv F
  0.100000  0.300000 -0.300000    0.00100000  53 t-inv F
  0.200000 -0.300000 -0.100000    0.00100000  54 t-inv F
  0.200000 -0.100000 -0.300000    0.00100000  54 t-inv F
 -0.200000  0.100000  0.300000    0.00100000  54 t-inv F
  0.100000 -0.200000  0.300000    0.00100000  54 t-inv F
 -0.100000  0.200000 -0.300000    0.00100000  54 t-inv F
 -0.300000  0.200000 -0.100000    0.00100000  54 t-inv F
  0.300000 -0.200000  0.100000    0.00100000  54 t-inv F
  0.300000  0.100000 -0.200000    0.00100000  54 t-inv F
 -0.300000 -0.100000  0.200000    0.00100000  54 t-inv F
 -0.100000 -0.300000  0.200000    0.00100000  54 t-inv F
  0.100000  0.300000 -0.200000    0.00100000  54 t-inv F
  0.100000 -0.300000 -0.100000    0.00100000  55 t-inv F
  0.100000 -0.100000 -0.300000    0.00100000  55 t-inv F
 -0.100000  0.100000  0.300000    0.00100000  55 t-inv F
  0.100000 -0.100000  0.300000    0.00100000  55 t-inv F
 -0.100000  0.100000 -0.300000    0.00100000  55 t-inv F
 -0.300000  0.100000 -0.100000    0.00100000  55 t-inv F
  0.300000 -0.100000  0.100000    0.00100000  55 t-inv F
  0.300000  0.100000 -0.100000    0.00100000  55 t-inv F
 -0.300000 -0.100000  0.100000    0.00100000  55 t-inv F
 -0.100000 -0.300000  0.100000    0.00100000  55 t-inv F
  0.100000  0.300000 -0.100000    0.00100000  55 t-inv F
 -0.400000 -0.400000 -0.100000    0.00100000  56 t-inv F
 -0.400000 -0.100000 -0.400000    0.00100000  56 t-inv F
  0.400000  0.100000  0.400000    0.00100000  56 t-inv F
  0.100000  0.400000  0.400000    0.00100000  56 t-inv F
 -0.100000 -0.400000 -0.400000    0.00100000  56 t-inv F
 -0.500000 -0.400000 -0.100000    0.00100000  57 t-inv F
 -0.500000 -0.100000 -0.400000    0.00100000  57 t-inv F
  0.500000  0.100000  0.400000    0.00100000  57 t-inv F
  0.100000  0.500000  0.400000    0.00100000  57 t-inv F
 -0.100000 -0.500000 -0.400000    0.00100000  57 t-inv F
 -0.400000 -0.500000 -0.100000    0.00100000  57 t-inv F
  0.400000  0.500000  0.100000    0.00100000  57 t-inv F
  0.400000  0.100000  0.500000    0.00100000  57 t-inv F
 -0.400000 -0.100000 -0.500000    0.00100000  57 t-inv F
 -0.100000 -0.400000 -0.500000    0.00100000  57 t-inv F
  0.100000  0.400000  0.500000    0.00100000  57 t-inv F
  0.400000 -0.400000 -0.100000    0.00100000  58 t-inv F
  0.400000 -0.100000 -0.400000    0.00100000  58 t-inv F
 -0.400000  0.100000  0.400000    0.00100000  58 t-inv F
  0.100000 -0.400000  0.400000    0.00100000  58 t-inv F
 -0.100000  0.400000 -0.400000    0.00100000  58 t-inv F
 -0.400000  0.400000 -0.100000    0.00100000  58 t-inv F
  0.400000 -0.400000  0.100000    0.00100000  58 t-inv F
  0.400000  0.100000 -0.400000    0.00100000  58 t-inv F
 -0.400000 -0.100000  0.400000    0.00100000  58 t-inv F
 -0.100000 -0.400000  0.400000    0.00100000  58 t-inv F
  0.100000  0.400000 -0.400000    0.00100000  58 t-inv F
  0.300000 -0.400000 -0.100000    0.00100000  59 t-inv F
  0.300000 -0.100000 -0.400000    0.00100000  59 t-inv F
 -0.300000  0.100000  0.400000    0.00100000  59 t-inv F
  0.100000 -0.300000  0.400000    0.00100000  59 t-inv F
 -0.100000  0.300000 -0.400000    0.00100000  59 t-inv F
 -0.400000  0.300000 -0.100000    0.00100000  59 t-inv F
  0.400000 -0.300000  0.100000    0.00100000  59 t-inv F
  0.400000  0.100000 -0.300000    0.00100000  59 t-inv F
 -0.400000 -0.100000  0.300000    0.00100000  59 t-inv F
 -0.100000 -0.400000  0.300000    0.00100000  59 t-inv F
  0.100000  0.400000 -0.300000    0.00100000  59 t-inv F
  0.200000 -0.400000 -0.100000    0.00100000  60 t-inv F
  0.200000 -0.100000 -0.400000    0.00100000  60 t-inv F
 -0.200000  0.100000  0.400000    0.00100000  60 t-inv F
  0.100000 -0.200000  0.400000    0.00100000  60 t-inv F
 -0.100000  0.200000 -0.400000    0.00100000  60 t-inv F
 -0.400000  0.200000 -0.100000    0.00100000  60 t-inv F
  0.400000 -0.200000  0.100000    0.00100000  60 t-inv F
  0.400000  0.100000 -0.200000    0.00100000  60 t-inv F
 -0.400000 -0.100000  0.200000    0.00100000  60 t-inv F
 -0.100000 -0.400000  0.200000    0.00100000  60 t-inv F
  0.100000  0.400000 -0.200000    0.00100000  60 t-inv F
  0.100000 -0.400000 -0.100000    0.00100000  61 t-inv F
  0.100000 -0.100000 -0.400000    0.00100000  61 t-inv F
 -0.100000  0.100000  0.400000    0.00100000  61 t-inv F
  0.100000 -0.100000  0.400000    0.00100000  61 t-inv F
 -0.100000  0.100000 -0.400000    0.00100000  61 t-inv F
 -0.400000  0.100000 -0.100000    0.00100000  61 t-inv F
  0.400000 -0.100000  0.100000    0.00100000  61 t-inv F
  0.400000  0.100000 -0.100000    0.00100000  61 t-inv F
 -0.400000 -0.100000  0.100000    0.00100000  61 t-inv F
 -0.100000 -0.400000  0.100000    0.00100000  61 t-inv F
  0.100000  0.400000 -0.100000    0.00100000  61 t-inv F
 -0.500000 -0.500000 -0.100000    0.00100000  62 t-inv F
 -0.500000 -0.100000 -0.500000    0.00100000  62 t-inv F
  0.500000  0.100000  0.500000    0.00100000  62 t-inv F
  0.100000  0.500000  0.500000    0.00100000  62 t-inv F
 -0.100000 -0.500000 -0.500000    0.00100000  62 t-inv F
  0.400000 -0.500000 -0.100000    0.00100000  63 t-inv F
  0.400000 -0.100000 -0.500000    0.00100000  63 t-inv F
 -0.400000  0.100000  0.500000    0.00100000  63 t-inv F
  0.100000 -0.400000  0.500000    0.00100000  63 t-inv F
 -0.100000  0.400000 -0.500000    0.00100000  63 t-inv F
 -0.500000  0.400000 -0.100000    0.00100000  63 t-inv F
  0.500000 -0.400000  0.100000    0.00100000  63 t-inv F
  0.500000  0.100000 -0.400000    0.00100000  63 t-inv F
 -0.500000 -0.100000  0.400000    0.00100000  63 t-inv F
 -0.100000 -0.500000  0.400000    0.00100000  63 t-inv F
  0.100000  0.500000 -0.400000    0.00100000  63 t-inv F
  0.300000 -0.500000 -0.100000    0.00100000  64 t-inv F
  0.300000 -0.100000 -0.500000    0.00100000  64 t-inv F
 -0.300000  0.100000  0.500000    0.00100000  64 t-inv F
  0.100000 -0.300000  0.500000    0.00100000  64 t-inv F
 -0.100000  0.300000 -0.500000    0.00100000  64 t-inv F
 -0.500000  0.300000 -0.100000    0.00100000  64 t-inv F
  0.500000 -0.300000  0.100000    0.00100000  64 t-inv F
  0.500000  0.100000 -0.300000    0.00100000  64 t-inv F
 -0.500000 -0.100000  0.300000    0.00100000  64 t-inv F
 -0.100000 -0.500000  0.300000    0.00100000  64 t-inv F
  0.100000  0.500000 -0.300000    0.00100000  64 t-inv F
  0.200000 -0.500000 -0.100000    0.00100000  65 t-inv F
  0.200000 -0.100000 -0.500000    0.00100000  65 t-inv F
 -0.200000  0.100000  0.500000    0.00100000  65 t-inv F
  0.100000 -0.200000  0.500000    0.00100000  65 t-inv F
 -0.100000  0.200000 -0.500000    0.00100000  65 t-inv F
 -0.500000  0.200000 -0.100000    0.00100000  65 t-inv F
  0.500000 -0.200000  0.100000    0.00100000  65 t-inv F
  0.500000  0.100000 -0.200000    0.00100000  65 t-inv F
 -0.500000 -0.100000  0.200000    0.00100000  65 t-inv F
 -0.100000 -0.500000  0.200000    0.00100000  65 t-inv F
  0.100000  0.500000 -0.200000    0.00100000  65 t-inv F
  0.100000 -0.500000 -0.100000    0.00100000  66 t-inv F
  0.100000 -0.100000 -0.500000    0.00100000  66 t-inv F
 -0.100000  0.100000  0.500000    0.00100000  66 t-inv F
 -0.500000  0.100000 -0.100000    0.00100000  66 t-inv F
  0.500000 -0.100000  0.100000    0.00100000  66 t-inv F
  0.400000  0.400000 -0.100000    0.00100000  67 t-inv F
  0.400000 -0.100000  0.400000    0.00100000  67 t-inv F
 -0.400000  0.100000 -0.400000    0.00100000  67 t-inv F
  0.100000 -0.400000 -0.400000    0.00100000  67 t-inv F
 -0.100000  0.400000  0.400000    0.00100000  67 t-inv F
  0.300000  0.400000 -0.100000    0.00100000  68 t-inv F
  0.300000 -0.100000  0.400000    0.00100000  68 t-inv F
 -0.300000  0.100000 -0.400000    0.00100000  68 t-inv F
  0.100000 -0.300000 -0.400000    0.00100000  68 t-inv F
 -0.100000  0.300000  0.400000    0.00100000  68 t-inv F
  0.400000  0.300000 -0.100000    0.00100000  68 t-inv F
 -0.400000 -0.300000  0.100000    0.00100000  68 t-inv F
 -0.400000  0.100000 -0.300000    0.00100000  68 t-inv F
  0.400000 -0.100000  0.300000    0.00100000  68 t-inv F
 -0.100000  0.400000  0.300000    0.00100000  68 t-inv F
  0.100000 -0.400000 -0.300000    0.00100000  68 t-inv F
  0.200000  0.400000 -0.100000    0.00100000  69 t-inv F
  0.200000 -0.100000  0.400000    0.00100000  69 t-inv F
 -0.200000  0.100000 -0.400000    0.00100000  69 t-inv F
  0.100000 -0.200000 -0.400000    0.00100000  69 t-inv F
 -0.100000  0.200000  0.400000    0.00100000  69 t-inv F
  0.400000  0.200000 -0.100000    0.00100000  69 t-inv F
 -0.400000 -0.200000  0.100000    0.00100000  69 t-inv F
 -0.400000  0.100000 -0.200000    0.00100000  69 t-inv F
  0.400000 -0.100000  0.200000    0.00100000  69 t-inv F
 -0.100000  0.400000  0.200000    0.00100000  69 t-inv F
  0.100000 -0.400000 -0.200000    0.00100000  69 t-inv F
  0.300000  0.300000 -0.100000    0.00100000  70 t-inv F
  0.300000 -0.100000  0.300000    0.00100000  70 t-inv F
 -0.300000  0.100000 -0.300000    0.00100000  70 t-inv F
  0.100000 -0.300000 -0.300000    0.00100000  70 t-inv F
 -0.100000  0.300000  0.300000    0.00100000  70 t-inv F
  0.200000  0.300000 -0.100000    0.00100000  71 t-inv F
  0.200000 -0.100000  0.300000    0.00100000  71 t-inv F
 -0.200000  0.100000 -0.300000    0.00100000  71 t-inv F
  0.100000 -0.200000 -0.300000    0.00100000  71 t-inv F
 -0.100000  0.200000  0.300000    0.00100000  71 t-inv F
  0.300000  0.200000 -0.100000    0.00100000  71 t-inv F
 -0.300000 -0.200000  0.100000    0.00100000  71 t-inv F
 -0.300000  0.100000 -0.200000    0.00100000  71 t-inv F
  0.300000 -0.100000  0.200000    0.00100000  71 t-inv F
 -0.100000  0.300000  0.200000    0.00100000  71 t-inv F
  0.100000 -0.300000 -0.200000    0.00100000  71 t-inv F
  0.200000  0.200000 -0.100000    0.00100000  72 t-inv F
  0.200000 -0.100000  0.200000    0.00100000  72 t-inv F
 -0.200000  0.100000 -0.200000    0.00100000  72 t-inv F
  0.100000 -0.200000 -0.200000    0.00100000  72 t-inv F
 -0.100000  0.200000  0.200000    0.00100000  72 t-inv F
 -0.200000 -0.200000 -0.200000    0.00100000  73 t-inv F
 -0.300000 -0.200000 -0.200000    0.00100000  74 t-inv F
  0.200000  0.300000  0.200000    0.00100000  74 t-inv F
 -0.200000 -0.300000 -0.200000    0.00100000  74 t-inv F
  0.200000  0.200000  0.300000    0.00100000  74 t-inv F
 -0.200000 -0.200000 -0.300000    0.00100000  74 t-inv F
 -0.400000 -0.200000 -0.200000    0.00100000  75 t-inv F
  0.200000  0.400000  0.200000    0.00100000  75 t-inv F
 -0.200000 -0.400000 -0.200000    0.00100000  75 t-inv F
  0.200000  0.200000  0.400000    0.00100000  75 t-inv F
 -0.200000 -0.200000 -0.400000    0.00100000  75 t-inv F
 -0.500000 -0.200000 -0.200000    0.00100000  76 t-inv F
  0.200000  0.500000  0.200000    0.00100000  76 t-inv F
 -0.200000 -0.500000 -0.200000    0.00100000  76 t-inv F
  0.200000  0.200000  0.500000    0.00100000  76 t-inv F
 -0.200000 -0.200000 -0.500000    0.00100000  76 t-inv F
  0.400000 -0.200000 -0.200000    0.00100000  77 t-inv F
  0.200000 -0.400000  0.200000    0.00100000  77 t-inv F
 -0.200000  0.400000 -0.200000    0.00100000  77 t-inv F
  0.200000  0.200000 -0.400000    0.00100000  77 t-inv F
 -0.200000 -0.200000  0.400000    0.00100000  77 t-inv F
  0.300000 -0.200000 -0.200000    0.00100000  78 t-inv F
  0.200000 -0.300000  0.200000    0.00100000  78 t-inv F
 -0.200000  0.300000 -0.200000    0.00100000  78 t-inv F
  0.200000  0.200000 -0.300000    0.00100000  78 t-inv F
 -0.200000 -0.200000  0.300000    0.00100000  78 t-inv F
  0.200000 -0.200000 -0.200000    0.00100000  79 t-inv F
  0.200000 -0.200000  0.200000    0.00100000  79 t-inv F
 -0.200000  0.200000 -0.200000    0.00100000  79 t-inv F
  0.200000  0.200000 -0.200000    0.00100000  79 t-inv F
 -0.200000 -0.200000  0.200000    0.00100000  79 t-inv F
 -0.300000 -0.300000 -0.200000    0.00100000  80 t-inv F
 -0.300000 -0.200000 -0.300000    0.00100000  80 t-inv F
  0.300000  0.200000  0.300000    0.00100000  80 t-inv F
  0.200000  0.300000  0.300000    0.00100000  80 t-inv F
 -0.200000 -0.300000 -0.300000    0.00100000  80 t-inv F
 -0.400000 -0.300000 -0.200000    0.00100000  81 t-inv F
 -0.400000 -0.200000 -0.300000    0.00100000  81 t-inv F
  0.400000  0.200000  0.300000    0.00100000  81 t-inv F
  0.200000  0.400000  0.300000    0.00100000  81 t-inv F
 -0.200000 -0.400000 -0.300000    0.00100000  81 t-inv F
 -0.300000 -0.400000 -0.200000    0.00100000  81 t-inv F
  0.300000  0.400000  0.200000    0.00100000  81 t-inv F
  0.300000  0.200000  0.400000    0.00100000  81 t-inv F
 -0.300000 -0.200000 -0.400000    0.00100000  81 t-inv F
 -0.200000 -0.300000 -0.400000    0.00100000  81 t-inv F
  0.200000  0.300000  0.400000    0.00100000  81 t-inv F
 -0.500000 -0.300000 -0.200000    0.00100000  82 t-inv F
 -0.500000 -0.200000 -0.300000    0.00100000  82 t-inv F
  0.500000  0.200000  0.300000    0.00100000  82 t-inv F
  0.200000  0.500000  0.300000    0.00100000  82 t-inv F
 -0.200000 -0.500000 -0.300000    0.00100000  82 t-inv F
 -0.300000 -0.500000 -0.200000    0.00100000  82 t-inv F
  0.300000  0.500000  0.200000    0.00100000  82 t-inv F
  0.300000  0.200000  0.500000    0.00100000  82 t-inv F
 -0.300000 -0.200000 -0.500000    0.00100000  82 t-inv F
 -0.200000 -0.300000 -0.500000    0.00100000  82 t-inv F
  0.200000  0.300000  0.500000    0.00100000  82 t-inv F
  0.400000 -0.300000 -0.200000    0.00100000  83 t-inv F
  0.400000 -0.200000 -0.300000    0.00100000  83 t-inv F
 -0.400000  0.200000  0.300000    0.00100000  83 t-inv F
  0.200000 -0.400000  0.300000    0.00100000  83 t-inv F
 -0.200000  0.400000 -0.300000    0.00100000  83 t-inv F
 -0.300000  0.400000 -0.200000    0.00100000  83 t-inv F
  0.300000 -0.400000  0.200000    0.00100000  83 t-inv F
  0.300000  0.200000 -0.400000    0.00100000  83 t-inv F
 -0.300000 -0.200000  0.400000    0.00100000  83 t-inv F
 -0.200000 -0.300000  0.400000    0.00100000  83 t-inv F
  0.200000  0.300000 -0.400000    0.00100000  83 t-inv F
  0.300000 -0.300000 -0.200000    0.00100000  84 t-inv F
  0.300000 -0.200000 -0.300000    0.00100000  84 t-inv F
 -0.300000  0.200000  0.300000    0.00100000  84 t-inv F
  0.200000 -0.300000  0.300000    0.00100000  84 t-inv F
 -0.200000  0.300000 -0.300000    0.00100000  84 t-inv F
 -0.300000  0.300000 -0.200000    0.00100000  84 t-inv F
  0.300000 -0.300000  0.200000    0.00100000  84 t-inv F
  0.300000  0.200000 -0.300000    0.00100000  84 t-inv F
 -0.300000 -0.200000  0.300000    0.00100000  84 t-inv F
 -0.200000 -0.300000  0.300000    0.00100000  84 t-inv F
  0.200000  0.300000 -0.300000    0.00100000  84 t-inv F
  0.200000 -0.300000 -0.200000    0.00100000  85 t-inv F
  0.200000 -0.200000 -0.300000    0.00100000  85 t-inv F
 -0.200000  0.200000  0.300000    0.00100000  85 t-inv F
  0.200000 -0.200000  0.300000    0.00100000  85 t-inv F
 -0.200000  0.200000 -0.300000    0.00100000  85 t-inv F
 -0.300000  0.200000 -0.200000    0.00100000  85 t-inv F
  0.300000 -0.200000  0.200000    0.00100000  85 t-inv F
  0.300000  0.200000 -0.200000    0.00100000  85 t-inv F
 -0.300000 -0.200000  0.200000    0.00100000  85 t-inv F
 -0.200000 -0.300000  0.200000    0.00100000  85 t-inv F
  0.200000  0.300000 -0.200000    0.00100000  85 t-inv F
 -0.400000 -0.400000 -0.200000    0.00100000  86 t-inv F
 -0.400000 -0.200000 -0.400000    0.00100000  86 t-inv F
  0.400000  0.200000  0.400000    0.00100000  86 t-inv F
  0.200000  0.400000  0.400000    0.00100000  86 t-inv F
 -0.200000 -0.400000 -0.400000    0.00100000  86 t-inv F
 -0.500000 -0.400000 -0.200000    0.00100000  87 t-inv F
 -0.500000 -0.200000 -0.400000    0.00100000  87 t-inv F
  0.500000  0.200000  0.400000    0.00100000  87 t-inv F
  0.200000  0.500000  0.400000    0.00100000  87 t-inv F
 -0.200000 -0.500000 -0.400000    0.00100000  87 t-inv F
 -0.400000 -0.500000 -0.200000    0.00100000  87 t-inv F
  0.400000  0.500000  0.200000    0.00100000  87 t-inv F
  0.400000  0.200000  0.500000    0.00100000  87 t-inv F
 -0.400000 -0.200000 -0.500000    0.00100000  87 t-inv F
 -0.200000 -0.400000 -0.500000    0.00100000  87 t-inv F
  0.200000  0.400000  0.500000    0.00100000  87 t-inv F
  0.400000 -0.400000 -0.200000    0.00100000  88 t-inv F
  0.400000 -0.200000 -0.400000    0.00100000  88 t-inv F
 -0.400000  0.200000  0.400000    0.00100000  88 t-inv F
  0.200000 -0.400000  0.400000    0.00100000  88 t-inv F
 -0.200000  0.400000 -0.400000    0.00100000  88 t-inv F
 -0.400000  0.400000 -0.200000    0.00100000  88 t-inv F
  0.400000 -0.400000  0.200000    0.00100000  88 t-inv F
  0.400000  0.200000 -0.400000    0.00100000  88 t-inv F
 -0.400000 -0.200000  0.400000    0.00100000  88 t-inv F
 -0.200000 -0.400000  0.400000    0.00100000  88 t-inv F
  0.200000  0.400000 -0.400000    0.00100000  88 t-inv F
  0.300000 -0.400000 -0.200000    0.00100000  89 t-inv F
  0.300000 -0.200000 -0.400000    0.00100000  89 t-inv F
 -0.300000  0.200000  0.400000    0.00100000  89 t-inv F
  0.200000 -0.300000  0.400000    0.00100000  89 t-inv F
 -0.200000  0.300000 -0.400000    0.00100000  89 t-inv F
 -0.400000  0.300000 -0.200000    0.00100000  89 t-inv F
  0.400000 -0.300000  0.200000    0.00100000  89 t-inv F
  0.400000  0.200000 -0.300000    0.00100000  89 t-inv F
 -0.400000 -0.200000  0.300000    0.00100000  89 t-inv F
 -0.200000 -0.400000  0.300000    0.00100000  89 t-inv F
  0.200000  0.400000 -0.300000    0.00100000  89 t-inv F
  0.200000 -0.400000 -0.200000    0.00100000  90 t-inv F
[...]
     28      -0.1771      0.00000
     29       1.6070      0.00000
     30      -0.4893      0.00000
     31       4.1254      0.00000
     32      -0.7388      0.00000
     33      -0.9323      0.00000
     34      -1.8112      0.00000
     35      -0.4857      0.00000
     36       2.2413      0.00000

 k-point 116 :       0.5000    0.5000    0.5000
  band No.  band energies     occupation 
      1      -1.3050      0.00000
      2      -1.0246      0.00000
      3      -1.4154      0.00000
      4      -1.4154      0.00000
      5      -1.4684      0.00000
      6       1.7592      0.00000
      7       1.7424      0.00000
      8       1.0113      0.00000
      9       0.0528      0.00000
     10      -1.4319      0.00000
     11      -1.4319      0.00000
     12       0.7948      0.00000
     13       0.7948      0.00000
     14      -1.4261      0.00000
     15      -1.4261      0.00000
     16      -2.0285      0.00000
     17      -2.0285      0.00000
     18      -5.2848      0.00000
     19       1.2658      0.00000
     20       0.9275      0.00000
     21       0.7546      0.00000
     22       1.2337      0.00000
     23       1.2337      0.00000
     24       1.6184      0.00000
     25       1.6184      0.00000
     26       5.5334      0.00000
     27       0.1282      0.00000
     28       0.1282      0.00000
     29       0.4800      0.00000
     30       0.6961      0.00000
     31      -0.0890      0.00000
     32      -0.0890      0.00000
     33       4.1712      0.00000
     34       4.1712      0.00000
     35      -2.4954      0.00000
     36       0.2033      0.00000


------------------------ aborting loop because EDIFF is reached ----------------------------------------


    FORLOC:  cpu time    0.0193: real time    0.0194
    FORNL :  cpu time    7.9219: real time    7.9625
    STRESS:  cpu time   25.4395: real time   25.5711
    FORCOR:  cpu time    0.2239: real time    0.2252
    OFIELD:  cpu time    0.0010: real time    0.0010
    FORLOC:  cpu time    0.0193: real time    0.0194
    FORNL :  cpu time    7.9109: real time    7.9501
    STRESS:  cpu time   25.4920: real time   25.6266
    FORCOR:  cpu time    0.2175: real time    0.2185
    OFIELD:  cpu time    0.0020: real time    0.0021
    FORLOC:  cpu time    0.0192: real time    0.0193
    FORNL :  cpu time    7.9620: real time    8.0032
    STRESS:  cpu time   25.6171: real time   25.7525
    FORCOR:  cpu time    0.2698: real time    0.2710
    OFIELD:  cpu time    0.0009: real time    0.0009
    FORLOC:  cpu time    0.0193: real time    0.0193
    FORNL :  cpu time    7.8661: real time    7.9058
    STRESS:  cpu time   25.4220: real time   25.5578
    FORCOR:  cpu time    0.2161: real time    0.2170
    OFIELD:  cpu time    0.0021: real time    0.0021

 INTERNAL STRAIN TENSOR  FOR ION    3  DIRECTION 3   (eV/Angst):
 -----------------------------------------------------------------------------
     7.26548  0.00000  0.00000
     0.00000  7.26548 -0.00000
     0.00000 -0.00000 -5.18097


 POSITION                   FORCE-CONSTANT FOR ION    3 DIRECTION 3 (eV/Angst/Angst)
 -----------------------------------------------------------------------------------
      0.00000      0.00000      0.00000         0.000000      0.000000     10.363746
      0.00000      0.00000      8.44242        -0.000000      0.000000      9.130503
     -0.00000      0.00000      1.84997        -0.000000     -0.000000    -26.749099
      0.00000      0.00000     15.03487         0.000000      0.000000      7.254850
 -----------------------------------------------------------------------------------
    total drift:                               -0.000000      0.000000     -0.000000


 BORN EFFECTIVE CHARGE FOR ION    3 DIRECTION 3 :   0.000  -0.000  -2.224
                   rigid augmentation           :  -0.000   0.000  -0.614
                   ionic contribution           :  -0.000   0.000   6.000
                   Berry contribution           :   0.000  -0.000  -7.610


--------------------------------------------------------------------------------------------------------


  LATTYP: Found a trigonal (rhomboedric) cell.
 ALAT       =     5.8622747487
 COS(alpha) =     0.8826433487
  
  Lattice vectors:
  
 A1 = (   1.4200545446,   0.8198688751,   5.6282790774)
 A2 = (  -1.4200545446,   0.8198688751,   5.6282790774)
 A3 = (   0.0000000000,  -1.6397377402,   5.6282790774)


Analysis of symmetry for initial positions (statically):
=====================================================================
 Subroutine PRICEL returns:
 Original cell was already a primitive cell.
 

 Routine SETGRP: Setting up the symmetry group for a 
 trigonal (rhombohedral) supercell.


 Subroutine GETGRP returns: Found 12 space group operations
 (whereof 12 operations were pure point group operations)
 out of a pool of 12 trial point group operations.


The static configuration has the point symmetry D_3d.


Analysis of symmetry for dynamics (positions and initial velocities):
=====================================================================
 Subroutine PRICEL returns:
 Original cell was already a primitive cell.
 

 Routine SETGRP: Setting up the symmetry group for a 
 trigonal (rhombohedral) supercell.


 Subroutine GETGRP returns: Found 12 space group operations
 (whereof 12 operations were pure point group operations)
 out of a pool of 12 trial point group operations.


The dynamic configuration has the point symmetry D_3d.


 Subroutine INISYM returns: Found 12 space group operations
 (whereof 12 operations are pure point group operations),
 and found     1 'primitive' translations



--------------------------------------------------------------------------------------------------------




 MACROSCOPIC STATIC DIELECTRIC TENSOR (including local field effects in DFT)
 ------------------------------------------------------
           6.312106    -0.000000    -0.000000
           0.000000     6.312106     0.000000
          -0.000000     0.000000     4.618906
 ------------------------------------------------------


 PIEZOELECTRIC TENSOR  for field in x, y, z        (e  Angst)
          XX          YY          ZZ          XY          YZ          ZX
  --------------------------------------------------------------------------------
  x     0.00062     0.00032     0.00358    -0.00000    -0.00010    -0.00000
  y     0.00015    -0.00049     0.00054     0.00000    -0.00005     0.00000
  z    -0.00012    -0.00012     0.00016     0.00000     0.00000    -0.00000

 PIEZOELECTRIC TENSOR  for field in x, y, z        (C/m^2)
          XX          YY          ZZ          XY          YZ          ZX
  --------------------------------------------------------------------------------
  x     0.00000     0.00000     0.00000     0.00000     0.00000     0.00000
  y     0.00000     0.00000     0.00000     0.00000     0.00000     0.00000
  z     0.00000     0.00000     0.00000     0.00000     0.00000     0.00000
 
 BORN EFFECTIVE CHARGES (in e, cummulative output)
 -------------------------------------------------
 ion    1
    1     0.87693     0.00000    -0.00000
    2    -0.00000     0.87701    -0.00001
    3     0.00000    -0.00000     1.49192
 ion    2
    1     3.05588     0.00000    -0.00000
    2    -0.00000     3.05584     0.00000
    3     0.00000     0.00000     2.95866
 ion    3
    1    -1.96641     0.00006     0.00020
    2     0.00000    -1.96643     0.00008
    3     0.00000    -0.00000    -2.22531
 ion    4
    1    -1.96641    -0.00006    -0.00020
    2    -0.00000    -1.96642    -0.00007
    3    -0.00000    -0.00000    -2.22527

 INTERNAL STRAIN TENSOR FOR ION    1 for displacements in x,y,z  (eV/Angst):
          X           Y           Z          XY          YZ          ZX
  --------------------------------------------------------------------------------
  x     0.00000     0.00000     0.00000     0.00000     0.00000     0.00000
  y     0.00000     0.00000     0.00000     0.00000     0.00000     0.00000
  z     0.00000     0.00000     0.00000     0.00000     0.00000     0.00000

 INTERNAL STRAIN TENSOR FOR ION    2 for displacements in x,y,z  (eV/Angst):
          X           Y           Z          XY          YZ          ZX
  --------------------------------------------------------------------------------
  x     0.00000     0.00000     0.00000     0.00000     0.00000     0.00000
  y     0.00000     0.00000     0.00000     0.00000     0.00000     0.00000
  z     0.00000     0.00000     0.00000     0.00000     0.00000     0.00000

 INTERNAL STRAIN TENSOR FOR ION    3 for displacements in x,y,z  (eV/Angst):
          X           Y           Z          XY          YZ          ZX
  --------------------------------------------------------------------------------
  x    -0.00000     0.00000    -0.00000    -0.70377    -0.00000     9.21444
  y    -0.70377     0.70377    -0.00000     0.00000     8.70335    -0.00000
  z     7.26548     7.26548    -5.18097    -0.00000    -0.00000    -0.00000

 INTERNAL STRAIN TENSOR FOR ION    4 for displacements in x,y,z  (eV/Angst):
          X           Y           Z          XY          YZ          ZX
  --------------------------------------------------------------------------------
  x     0.00000    -0.00000     0.00000     0.70377     0.00000    -9.21444
  y     0.70377    -0.70377     0.00000    -0.00000    -8.70335     0.00000
  z    -7.26548    -7.26548     5.18097     0.00000     0.00000     0.00000


--------------------------------------------------------------------------------------------------------


 
 SECOND DERIVATIVES (NOT SYMMETRIZED)
 ------------------------------------
               1X          1Y          1Z          2X          2Y          2Z          3X          3Y          3Z          4X          4Y          4Z 
  1X    -2.762982    0.000000    0.000000    0.034033   -0.000000   -0.000000    1.364474   -0.000000   -0.000000    1.364474   -0.000000   -0.000000
  1Y     0.000000   -2.762982   -0.000000   -0.000000    0.034033    0.000000   -0.000000    1.364474    0.000000   -0.000000    1.364474    0.000000
  1Z     0.000000   -0.000000  -27.288518   -0.000000    0.000000    6.535253   -0.000000    0.000000   10.376632   -0.000000    0.000000   10.376632
  2X     0.044206   -0.000000   -0.000000  -13.349729    0.000000    0.000000    6.652762   -0.000000   -0.000000    6.652762   -0.000000   -0.000000
  2Y    -0.000000    0.044206    0.000000    0.000000  -13.349729   -0.000000   -0.000000    6.652762    0.000000   -0.000000    6.652762    0.000000
  2Z    -0.000000    0.000000    6.525623    0.000000   -0.000000  -24.783420   -0.000000    0.000000    9.128899   -0.000000    0.000000    9.128899
  3X     1.365326   -0.000000   -0.000000    6.661558   -0.000000   -0.000000   -9.194273    0.000000    0.000000    1.167389   -0.000000   -0.000000
  3Y    -0.000000    1.365325    0.000000   -0.000000    6.661558    0.000000    0.000000   -9.194273   -0.000000   -0.000000    1.167389    0.000000
  3Z    -0.000000    0.000000   10.363746   -0.000000    0.000000    9.130503    0.000000   -0.000000  -26.749099   -0.000000    0.000000    7.254850
  4X     1.365326   -0.000000   -0.000000    6.661558   -0.000000   -0.000000    1.167389   -0.000000   -0.000000   -9.194273    0.000000    0.000000
  4Y    -0.000000    1.365325    0.000000   -0.000000    6.661558    0.000000   -0.000000    1.167389    0.000000    0.000000   -9.194273   -0.000000
  4Z    -0.000000    0.000000   10.363746   -0.000000    0.000000    9.130503   -0.000000    0.000000    7.254850    0.000000   -0.000000  -26.749099
 
 
 Eigenvectors and eigenvalues of the dynamical matrix
 ----------------------------------------------------
 
 
   1 f  =   22.790581 THz   143.197444 2PiTHz  760.211934 cm-1    94.254301 meV
             X         Y         Z           dx          dy          dz
      0.000000  0.000000  0.000000    -0.000000    0.000000   -0.000000  
      0.000000  0.000000  8.442419    -0.000000   -0.000000    0.000000  
     -0.000000  0.000000  1.849970     0.000000   -0.000000   -0.707107  
      0.000000  0.000000 15.034868     0.000000    0.000000    0.707107  
 
   2 f  =   20.770298 THz   130.503629 2PiTHz  692.822535 cm-1    85.899077 meV
             X         Y         Z           dx          dy          dz
      0.000000  0.000000  0.000000    -0.000000    0.000000    0.212413  
      0.000000  0.000000  8.442419    -0.000000    0.000000    0.552168  
     -0.000000  0.000000  1.849970     0.000000   -0.000000   -0.570084  
      0.000000  0.000000 15.034868     0.000000   -0.000000   -0.570084  
 
   3 f  =   15.264062 THz    95.906929 2PiTHz  509.154283 cm-1    63.127108 meV
             X         Y         Z           dx          dy          dz
      0.000000  0.000000  0.000000    -0.046550   -0.000000   -0.000000  
      0.000000  0.000000  8.442419    -0.702062   -0.000000    0.000000  
     -0.000000  0.000000  1.849970     0.502465    0.000000    0.000000  
      0.000000  0.000000 15.034868     0.502465    0.000000    0.000000  
 
   4 f  =   15.264062 THz    95.906929 2PiTHz  509.154281 cm-1    63.127108 meV
             X         Y         Z           dx          dy          dz
      0.000000  0.000000  0.000000     0.000000   -0.046550    0.000000  
      0.000000  0.000000  8.442419     0.000000   -0.702062    0.000000  
     -0.000000  0.000000  1.849970    -0.000000    0.502465   -0.000000  
      0.000000  0.000000 15.034868    -0.000000    0.502465   -0.000000  
 
   5 f  =   13.993133 THz    87.921451 2PiTHz  466.760677 cm-1    57.870969 meV
             X         Y         Z           dx          dy          dz
      0.000000  0.000000  0.000000     0.000000   -0.000000   -0.660750  
      0.000000  0.000000  8.442419     0.000000   -0.000000    0.689002  
     -0.000000  0.000000  1.849970    -0.000000    0.000000    0.210577  
      0.000000  0.000000 15.034868     0.000000    0.000000    0.210577  
 
   6 f  =   12.580718 THz    79.046984 2PiTHz  419.647576 cm-1    52.029687 meV
             X         Y         Z           dx          dy          dz
      0.000000  0.000000  0.000000    -0.000000   -0.000000   -0.000000  
      0.000000  0.000000  8.442419    -0.000000    0.000000    0.000000  
     -0.000000  0.000000  1.849970     0.707107   -0.000000    0.000000  
      0.000000  0.000000 15.034868    -0.707107    0.000000    0.000000  
 
   7 f  =   12.580718 THz    79.046984 2PiTHz  419.647575 cm-1    52.029687 meV
             X         Y         Z           dx          dy          dz
      0.000000  0.000000  0.000000     0.000000    0.000000    0.000000  
      0.000000  0.000000  8.442419     0.000000   -0.000000   -0.000000  
     -0.000000  0.000000  1.849970     0.000000    0.707107   -0.000000  
      0.000000  0.000000 15.034868    -0.000000   -0.707107    0.000000  
 
   8 f  =    4.600667 THz    28.906842 2PiTHz  153.461719 cm-1    19.026835 meV
             X         Y         Z           dx          dy          dz
      0.000000  0.000000  0.000000    -0.691521    0.000000    0.000000  
      0.000000  0.000000  8.442419     0.535995   -0.000000    0.000000  
     -0.000000  0.000000  1.849970     0.342424   -0.000000    0.000000  
      0.000000  0.000000 15.034868     0.342424   -0.000000    0.000000  
 
   9 f  =    4.600667 THz    28.906842 2PiTHz  153.461719 cm-1    19.026835 meV
             X         Y         Z           dx          dy          dz
      0.000000  0.000000  0.000000     0.000000    0.691521   -0.000000  
      0.000000  0.000000  8.442419    -0.000000   -0.535995    0.000000  
     -0.000000  0.000000  1.849970    -0.000000   -0.342424    0.000000  
      0.000000  0.000000 15.034868    -0.000000   -0.342424    0.000000  
 
  10 f/i=    0.004830 THz     0.030347 2PiTHz    0.161106 cm-1     0.019975 meV
             X         Y         Z           dx          dy          dz
      0.000000  0.000000  0.000000    -0.000000    0.000000   -0.719924  
      0.000000  0.000000  8.442419    -0.000000    0.000000   -0.469453  
     -0.000000  0.000000  1.849970    -0.000000    0.000000   -0.361472  
      0.000000  0.000000 15.034868    -0.000000    0.000000   -0.361472  
 
  11 f/i=    0.005248 THz     0.032972 2PiTHz    0.175042 cm-1     0.021703 meV
             X         Y         Z           dx          dy          dz
      0.000000  0.000000  0.000000    -0.160196   -0.702829   -0.000000  
      0.000000  0.000000  8.442419    -0.104192   -0.457123   -0.000000  
     -0.000000  0.000000  1.849970    -0.080211   -0.351911   -0.000000  
      0.000000  0.000000 15.034868    -0.080211   -0.351911   -0.000000  
 
  12 f/i=    0.005248 THz     0.032972 2PiTHz    0.175042 cm-1     0.021703 meV
             X         Y         Z           dx          dy          dz
      0.000000  0.000000  0.000000    -0.702829    0.160196    0.000000  
      0.000000  0.000000  8.442419    -0.457123    0.104192    0.000000  
     -0.000000  0.000000  1.849970    -0.351911    0.080211    0.000000  
      0.000000  0.000000 15.034868    -0.351911    0.080211    0.000000  
 


--------------------------------------------------------------------------------------------------------




 MACROSCOPIC STATIC DIELECTRIC TENSOR IONIC CONTRIBUTION
 ------------------------------------------------------
           4.523349     0.000000    -0.000000
           0.000000     4.523494    -0.000002
          -0.000000    -0.000002     2.554788
 ------------------------------------------------------


 ELASTIC MODULI IONIC CONTR (kBar)
 Direction    XX          YY          ZZ          XY          YZ          ZX
 --------------------------------------------------------------------------------
 XX        -130.4172   -122.6255     90.2217     -0.0000     48.1785      0.0000
 YY        -122.6255   -130.4172     90.2217     -0.0000    -48.1785      0.0000
 ZZ          90.2217     90.2217    -64.3366     -0.0000     -0.0000      0.0000
 XY          -0.0000     -0.0000     -0.0000     -3.8958      0.0000     51.0078
 YZ          48.1785    -48.1785     -0.0000      0.0000   -595.8097     -0.0000
 ZX           0.0000      0.0000      0.0000     51.0078     -0.0000   -667.8411
 --------------------------------------------------------------------------------


 PIEZOELECTRIC TENSOR IONIC CONTR  for field in x, y, z        (C/m^2)
          XX          YY          ZZ          XY          YZ          ZX
  --------------------------------------------------------------------------------
  x     0.00003     0.00004    -0.00003    -0.00000     0.00004     0.00000
  y     0.00001     0.00001    -0.00001    -0.00000    -0.00000     0.00000
  z    -0.00000    -0.00000     0.00000    -0.00000     0.00000     0.00000


--------------------------------------------------------------------------------------------------------


     LOOP+:  cpu time 9118.1079: real time 9185.1030
    4ORBIT:  cpu time    0.0000: real time    0.0000

 total amount of memory used by VASP MPI-rank0   307618. kBytes
=======================================================================

   base      :      30000. kBytes
   nonl-proj :     136135. kBytes
   fftplans  :      65586. kBytes
   grid      :      33214. kBytes
   one-center:        322. kBytes
   wavefun   :      42361. kBytes
 
  
  
 General timing and accounting informations for this job:
 ========================================================
  
                  Total CPU time used (sec):     9121.952
                            User time (sec):     8801.990
                          System time (sec):      319.962
                         Elapsed time (sec):     9189.236
  
                   Maximum memory used (kb):     1574064.
                   Average memory used (kb):           0.
  
                          Minor page faults:    109539613
                          Major page faults:            2
                 Voluntary context switches:          204
