nohup: ignoring input
Loading vasp/5.4.4-intel-2019.3-avx512
  Loading requirement: intel/2019.3
 running on   12 total cores
 distrk:  each k-point on   12 cores,    1 groups
 distr:  one band on    6 cores,    2 groups
 using from now: INCAR     
 vasp.5.4.4.18Apr17-6-g9f103f2a35 (build Dec 13 2019 19:06:22) complex          
  
 POSCAR found type information on POSCAR  Cu Al O 
 POSCAR found :  3 types and       4 ions
 scaLAPACK will be used

 ----------------------------------------------------------------------------- 
|                                                                             |
|  ADVICE TO THIS USER RUNNING 'VASP/VAMP'   (HEAR YOUR MASTER'S VOICE ...):  |
|                                                                             |
|      You enforced a specific xc-type in the INCAR file,                     |
|      a different type was found on the POTCAR file                          |
|          I HOPE YOU KNOW, WHAT YOU ARE  DOING                               |
|                                                                             |
 ----------------------------------------------------------------------------- 

 LDA part: xc-table for Pade appr. of Perdew
 found WAVECAR, reading the header
 POSCAR, INCAR and KPOINTS ok, starting setup
 FFT: planning ...
 reading WAVECAR
 the WAVECAR file was read successfully
 initial charge from wavefunction
 entering main loop
       N       E                     dE             d eps       ncg     rms          rms(c)
DAV:   1    -0.274112802440E+02   -0.27411E+02   -0.11807E-06 10724   0.526E-02    0.257E-03
DAV:   2    -0.274112802601E+02   -0.16156E-07   -0.10149E-06 11144   0.759E-02    0.245E-03
DAV:   3    -0.274112801551E+02    0.10502E-06   -0.25614E-07  9268   0.384E-02    0.366E-04
DAV:   4    -0.274112801571E+02   -0.20418E-08   -0.82206E-09  8268   0.172E-03
   1 F= -.27411280E+02 E0= -.27411280E+02  d E =-.268825E-10
 Linear response reoptimize wavefunctions to high precision
DAV:   1    -0.274112801595E+02   -0.23906E-08   -0.33875E-09  9728   0.126E-03
DAV:   2    -0.274112801596E+02   -0.10186E-09   -0.78562E-10  7892   0.777E-04
DAV:   3    -0.274112801597E+02   -0.45020E-10   -0.51486E-10  7680   0.693E-04
 Linear response G [H, r] |phi>, progress :
  Direction:   1
       N       E                     dE             d eps       ncg     rms
RMM:   1    -0.290520952766E+03   -0.29052E+03   -0.42214E+07  8630   0.333E+05
RMM:   2    -0.292068698011E+03   -0.15477E+01   -0.20305E+02 18298   0.362E+02
RMM:   3    -0.300254413169E+03   -0.81857E+01   -0.28837E+01 20414   0.121E+02
RMM:   4    -0.301139727644E+03   -0.88531E+00   -0.75567E+00 19827   0.593E+01
RMM:   5    -0.301250261966E+03   -0.11053E+00   -0.17980E+00 19430   0.320E+01
RMM:   6    -0.301281915818E+03   -0.31654E-01   -0.59813E-01 19615   0.180E+01
RMM:   7    -0.301292546497E+03   -0.10631E-01   -0.24394E-01 19587   0.110E+01
RMM:   8    -0.301293962894E+03   -0.14164E-02   -0.10735E-01 19823   0.737E+00
RMM:   9    -0.301295318886E+03   -0.13560E-02   -0.53689E-02 19653   0.498E+00
RMM:  10    -0.301296116578E+03   -0.79769E-03   -0.35558E-02 19805   0.363E+00
RMM:  11    -0.301295741541E+03    0.37504E-03   -0.15956E-02 19800   0.270E+00
RMM:  12    -0.301295966836E+03   -0.22530E-03   -0.11254E-02 19674   0.207E+00
RMM:  13    -0.301296682542E+03   -0.71571E-03   -0.12679E-02 19614   0.160E+00
RMM:  14    -0.301295957456E+03    0.72509E-03   -0.25799E-03 19488   0.130E+00
RMM:  15    -0.301296259936E+03   -0.30248E-03   -0.32376E-03 19338   0.106E+00
RMM:  16    -0.301296413930E+03   -0.15399E-03   -0.36751E-03 19323   0.902E-01
RMM:  17    -0.301296393138E+03    0.20792E-04   -0.21725E-03 19116   0.782E-01
RMM:  18    -0.301296138579E+03    0.25456E-03    0.75357E-04 19050   0.696E-01
RMM:  19    -0.301296409649E+03   -0.27107E-03   -0.94602E-04 19147   0.603E-01
RMM:  20    -0.301297032892E+03   -0.62324E-03   -0.71390E-03 18997   0.562E-01
RMM:  21    -0.301296130906E+03    0.90199E-03    0.26367E-03 18938   0.491E-01
RMM:  22    -0.301296319072E+03   -0.18817E-03    0.71403E-04 18949   0.470E-01
RMM:  23    -0.301296868670E+03   -0.54960E-03   -0.41983E-03 18985   0.406E-01
RMM:  24    -0.301296381652E+03    0.48702E-03    0.68425E-04 18898   0.387E-01
RMM:  25    -0.301296317752E+03    0.63900E-04    0.16698E-03 18912   0.333E-01
RMM:  26    -0.301296372675E+03   -0.54924E-04    0.11565E-03 18939   0.302E-01
RMM:  27    -0.301296585736E+03   -0.21306E-03   -0.93065E-04 18974   0.254E-01
RMM:  28    -0.301296317323E+03    0.26841E-03    0.15325E-03 18920   0.221E-01
RMM:  29    -0.301296334640E+03   -0.17318E-04    0.86578E-04 18962   0.187E-01
RMM:  30    -0.301296902381E+03   -0.56774E-03   -0.54502E-03 18839   0.178E-01
RMM:  31    -0.301296148751E+03    0.75363E-03    0.12975E-03 18947   0.169E-01
RMM:  32    -0.301296490977E+03   -0.34223E-03   -0.28947E-03 18912   0.174E-01
 Linear response G [H, r] |phi>, progress :
  Direction:   2
       N       E                     dE             d eps       ncg     rms
RMM:   1    -0.291608048547E+03   -0.29161E+03   -0.42162E+07  8622   0.332E+05
RMM:   2    -0.289008524083E+03    0.25995E+01   -0.18173E+02 18241   0.358E+02
RMM:   3    -0.299032639975E+03   -0.10024E+02   -0.28590E+01 20522   0.113E+02
RMM:   4    -0.299928492761E+03   -0.89585E+00   -0.76660E+00 19942   0.565E+01
RMM:   5    -0.300023691724E+03   -0.95199E-01   -0.18812E+00 19546   0.305E+01
RMM:   6    -0.300041036007E+03   -0.17344E-01   -0.63324E-01 19713   0.173E+01
RMM:   7    -0.300048048204E+03   -0.70122E-02   -0.24828E-01 19611   0.107E+01
RMM:   8    -0.300049911990E+03   -0.18638E-02   -0.12364E-01 19752   0.726E+00
RMM:   9    -0.300051069490E+03   -0.11575E-02   -0.58439E-02 19745   0.494E+00
RMM:  10    -0.300051892327E+03   -0.82284E-03   -0.44649E-02 19788   0.381E+00
RMM:  11    -0.300051882721E+03    0.96060E-05   -0.21640E-02 19655   0.271E+00
RMM:  12    -0.300051707259E+03    0.17546E-03   -0.14927E-02 19672   0.227E+00
RMM:  13    -0.300052362309E+03   -0.65505E-03   -0.12408E-02 19603   0.168E+00
RMM:  14    -0.300052105074E+03    0.25723E-03   -0.88752E-03 19412   0.148E+00
RMM:  15    -0.300052117187E+03   -0.12113E-04   -0.47570E-03 19207   0.117E+00
RMM:  16    -0.300052414621E+03   -0.29743E-03   -0.56909E-03 19186   0.982E-01
RMM:  17    -0.300052417422E+03   -0.28009E-05   -0.33052E-03 19116   0.785E-01
RMM:  18    -0.300052159415E+03    0.25801E-03    0.22812E-04 19037   0.687E-01
RMM:  19    -0.300052627591E+03   -0.46818E-03   -0.34866E-03 19023   0.569E-01
RMM:  20    -0.300052449931E+03    0.17766E-03   -0.13586E-03 18907   0.506E-01
RMM:  21    -0.300052246605E+03    0.20333E-03    0.10947E-03 18887   0.443E-01
RMM:  22    -0.300052547750E+03   -0.30115E-03   -0.17782E-03 18881   0.408E-01
RMM:  23    -0.300052497431E+03    0.50319E-04   -0.99630E-04 18784   0.367E-01
RMM:  24    -0.300052453239E+03    0.44191E-04   -0.46709E-04 18783   0.351E-01
RMM:  25    -0.300052465286E+03   -0.12047E-04   -0.35479E-04 18771   0.322E-01
RMM:  26    -0.300052422602E+03    0.42684E-04    0.18509E-04 18775   0.307E-01
RMM:  27    -0.300052496308E+03   -0.73706E-04   -0.37607E-04 18726   0.282E-01
RMM:  28    -0.300052465650E+03    0.30658E-04    0.10916E-04 18824   0.262E-01
RMM:  29    -0.300052413223E+03    0.52427E-04    0.70844E-04 18738   0.244E-01
RMM:  30    -0.300052375936E+03    0.37286E-04    0.12399E-03 18807   0.224E-01
RMM:  31    -0.300052482305E+03   -0.10637E-03    0.16923E-04 18725   0.217E-01
RMM:  32    -0.300052455726E+03    0.26579E-04    0.56505E-04 18775   0.202E-01
RMM:  33    -0.300052595465E+03   -0.13974E-03   -0.83046E-04 18761   0.193E-01
RMM:  34    -0.300052310776E+03    0.28469E-03    0.21175E-03 18856   0.182E-01
RMM:  35    -0.300052482355E+03   -0.17158E-03    0.43423E-04 18694   0.167E-01
RMM:  36    -0.300052374316E+03    0.10804E-03    0.15533E-03 18758   0.164E-01
RMM:  37    -0.300052552864E+03   -0.17855E-03   -0.22617E-04 18798   0.156E-01
 Linear response G [H, r] |phi>, progress :
  Direction:   3
       N       E                     dE             d eps       ncg     rms
RMM:   1    -0.292963172809E+03   -0.29296E+03   -0.42165E+07  8644   0.330E+05
RMM:   2    -0.292801041504E+03    0.16213E+00   -0.20440E+02 18355   0.374E+02
RMM:   3    -0.298456708041E+03   -0.56557E+01   -0.25401E+01 20325   0.116E+02
RMM:   4    -0.299172349847E+03   -0.71564E+00   -0.51310E+00 19790   0.556E+01
RMM:   5    -0.299332088539E+03   -0.15974E+00   -0.14197E+00 19724   0.306E+01
RMM:   6    -0.299364904541E+03   -0.32816E-01   -0.54137E-01 19888   0.175E+01
RMM:   7    -0.299370336415E+03   -0.54319E-02   -0.21373E-01 19894   0.106E+01
RMM:   8    -0.299371575948E+03   -0.12395E-02   -0.10492E-01 20050   0.724E+00
RMM:   9    -0.299372605773E+03   -0.10298E-02   -0.55090E-02 19973   0.495E+00
RMM:  10    -0.299372846864E+03   -0.24109E-03   -0.31674E-02 20045   0.359E+00
RMM:  11    -0.299373279136E+03   -0.43227E-03   -0.23545E-02 20059   0.273E+00
RMM:  12    -0.299373408601E+03   -0.12946E-03   -0.18079E-02 19948   0.216E+00
RMM:  13    -0.299373870184E+03   -0.46158E-03   -0.18729E-02 19763   0.174E+00
RMM:  14    -0.299373929369E+03   -0.59184E-04   -0.16066E-02 19708   0.146E+00
RMM:  15    -0.299373897991E+03    0.31377E-04   -0.14145E-02 19592   0.123E+00
RMM:  16    -0.299373744747E+03    0.15324E-03   -0.10936E-02 19632   0.106E+00
RMM:  17    -0.299373793308E+03   -0.48561E-04   -0.10087E-02 19525   0.902E-01
RMM:  18    -0.299374081001E+03   -0.28769E-03   -0.12251E-02 19352   0.771E-01
RMM:  19    -0.299373921378E+03    0.15962E-03   -0.95998E-03 19368   0.666E-01
RMM:  20    -0.299373706476E+03    0.21490E-03   -0.80138E-03 19281   0.600E-01
RMM:  21    -0.299373514210E+03    0.19227E-03   -0.52623E-03 19334   0.526E-01
RMM:  22    -0.299373944640E+03   -0.43043E-03   -0.10474E-02 19146   0.478E-01
RMM:  23    -0.299373565637E+03    0.37900E-03   -0.59642E-03 19266   0.438E-01
RMM:  24    -0.299373843405E+03   -0.27777E-03   -0.10108E-02 19220   0.421E-01
RMM:  25    -0.299373586108E+03    0.25730E-03   -0.63959E-03 19106   0.383E-01
RMM:  26    -0.299373862214E+03   -0.27611E-03   -0.10786E-02 19193   0.377E-01
RMM:  27    -0.299373612248E+03    0.24997E-03   -0.65171E-03 19218   0.346E-01
RMM:  28    -0.299373809171E+03   -0.19692E-03   -0.10052E-02 19117   0.345E-01
 Linear response to external field (no local field effect), progress :
  Direction:   1
       N       E                     dE             d eps       ncg     rms          rms(c)
RMM:   1    -0.147157744729E+00   -0.14716E+00   -0.21368E+02  8598   0.899E+02
RMM:   2    -0.516162370596E+00   -0.36900E+00    0.54261E-01 15198   0.894E+00
RMM:   3    -0.572607035948E+00   -0.56445E-01    0.78423E-02 17775   0.372E+00
RMM:   4    -0.581177029038E+00   -0.85700E-02    0.14617E-02 18650   0.167E+00
RMM:   5    -0.582870114459E+00   -0.16931E-02    0.29973E-03 18850   0.840E-01
RMM:   6    -0.583256400118E+00   -0.38629E-03    0.72635E-04 19357   0.440E-01
RMM:   7    -0.583348010555E+00   -0.91610E-04    0.22117E-04 19440   0.259E-01
RMM:   8    -0.583377134179E+00   -0.29124E-04    0.48408E-05 19477   0.159E-01
RMM:   9    -0.583383655985E+00   -0.65218E-05    0.24322E-05 19465   0.105E-01
RMM:  10    -0.583386967921E+00   -0.33119E-05    0.81874E-06 19357   0.705E-02
RMM:  11    -0.583388507688E+00   -0.15398E-05    0.22307E-06 19388   0.468E-02
RMM:  12    -0.583388995995E+00   -0.48831E-06    0.20699E-06 19103   0.321E-02
RMM:  13    -0.583389315798E+00   -0.31980E-06    0.14436E-06 18584   0.218E-02
RMM:  14    -0.583389583636E+00   -0.26784E-06   -0.33495E-07 17854   0.151E-02
RMM:  15    -0.583389613817E+00   -0.30180E-07   -0.35284E-07 17174   0.109E-02
 change of polarisation eV/A/(eV/A) component  1 :     1.167     0.265     0.030
 dielectric tensor                  component  1 :     6.370     1.221     0.138
 Linear response to external field (no local field effect), progress :
  Direction:   2
       N       E                     dE             d eps       ncg     rms          rms(c)
RMM:   1    -0.153922421880E+00   -0.15392E+00   -0.23903E+02  8600   0.925E+02
RMM:   2    -0.562696932894E+00   -0.40877E+00    0.61888E-01 15298   0.932E+00
RMM:   3    -0.625877106494E+00   -0.63180E-01    0.96194E-02 17585   0.385E+00
RMM:   4    -0.635730816087E+00   -0.98537E-02    0.20254E-02 18592   0.180E+00
RMM:   5    -0.637853491130E+00   -0.21227E-02    0.49194E-03 18816   0.919E-01
RMM:   6    -0.638399965635E+00   -0.54647E-03    0.12529E-03 19146   0.483E-01
RMM:   7    -0.638547102326E+00   -0.14714E-03    0.34975E-04 19318   0.278E-01
RMM:   8    -0.638589751002E+00   -0.42649E-04    0.74196E-05 19315   0.172E-01
RMM:   9    -0.638600974883E+00   -0.11224E-04    0.21372E-05 19336   0.110E-01
RMM:  10    -0.638604996662E+00   -0.40218E-05    0.21512E-07 19415   0.715E-02
RMM:  11    -0.638606107849E+00   -0.11112E-05   -0.18091E-06 19412   0.474E-02
RMM:  12    -0.638606363361E+00   -0.25551E-06   -0.16303E-06 19003   0.325E-02
RMM:  13    -0.638606410354E+00   -0.46993E-07   -0.94370E-07 18714   0.228E-02
 change of polarisation eV/A/(eV/A) component  2 :     0.265     1.277     0.013
 dielectric tensor                  component  2 :     1.221     6.878     0.060
 Linear response to external field (no local field effect), progress :
  Direction:   3
       N       E                     dE             d eps       ncg     rms          rms(c)
RMM:   1    -0.131195278219E+00   -0.13120E+00   -0.31881E+02  8727   0.106E+03
RMM:   2    -0.359813656546E+00   -0.22862E+00    0.29177E-01 14677   0.110E+01
RMM:   3    -0.396216997282E+00   -0.36403E-01    0.39315E-02 17519   0.404E+00
RMM:   4    -0.401762585103E+00   -0.55456E-02    0.90143E-03 18180   0.189E+00
RMM:   5    -0.403000295711E+00   -0.12377E-02    0.21095E-03 18365   0.959E-01
RMM:   6    -0.403325545056E+00   -0.32525E-03    0.43415E-04 18618   0.522E-01
RMM:   7    -0.403407342791E+00   -0.81798E-04    0.57054E-05 18797   0.296E-01
RMM:   8    -0.403424193258E+00   -0.16850E-04    0.17770E-05 18861   0.175E-01
RMM:   9    -0.403431039503E+00   -0.68462E-05   -0.24365E-06 18968   0.107E-01
RMM:  10    -0.403432247613E+00   -0.12081E-05   -0.13784E-06 18912   0.707E-02
RMM:  11    -0.403432670854E+00   -0.42324E-06   -0.10428E-06 18795   0.464E-02
RMM:  12    -0.403432832346E+00   -0.16149E-06   -0.84248E-07 18565   0.323E-02
RMM:  13    -0.403432861511E+00   -0.29165E-07   -0.44948E-07 17978   0.219E-02
 change of polarisation eV/A/(eV/A) component  3 :     0.030     0.013     0.807
 dielectric tensor                  component  3 :     0.138     0.060     4.714
 Linear response to external field, progress :
  Direction:   1

 ----------------------------------------------------------------------------- 
|                                                                             |
|     EEEEEEE  RRRRRR   RRRRRR   OOOOOOO  RRRRRR      ###     ###     ###     |
|     E        R     R  R     R  O     O  R     R     ###     ###     ###     |
|     E        R     R  R     R  O     O  R     R     ###     ###     ###     |
|     EEEEE    RRRRRR   RRRRRR   O     O  RRRRRR       #       #       #      |
|     E        R   R    R   R    O     O  R   R                               |
|     E        R    R   R    R   O     O  R    R      ###     ###     ###     |
|     EEEEEEE  R     R  R     R  OOOOOOO  R     R     ###     ###     ###     |
|                                                                             |
|      VASP internal routines  have requested a change of the k-point set.    |
|      Unfortunately this is only possible if NPAR=number of nodes.           |
|      Please remove the tag NPAR from the INCAR file and restart the         |
|      calculations.                                                          |
|                                                                             |
|      ---->  I REFUSE TO CONTINUE WITH THIS SICK JOB ..., BYE!!! <----       |
|                                                                             |
 ----------------------------------------------------------------------------- 

