<?xml version="1.0" encoding="ISO-8859-1"?>
<modeling>
 <generator>
  <i name="program" type="string">vasp </i>
  <i name="version" type="string">5.4.4.18Apr17-6-g9f103f2a35  </i>
  <i name="subversion" type="string">(build Dec 13 2019 19:06:22) complex            parallel </i>
  <i name="platform" type="string">LinuxIFC </i>
  <i name="date" type="string">2021 07 02 </i>
  <i name="time" type="string">09:37:19 </i>
 </generator>
 <incar>
  <i type="int" name="ISTART">     1</i>
  <i type="string" name="PREC">accurate</i>
  <i type="logical" name="ADDGRID"> T  </i>
  <i type="int" name="ISPIN">     1</i>
  <i type="int" name="IBRION">     8</i>
  <i name="EDIFF">      0.00000010</i>
  <i name="ENCUT">    550.00000000</i>
  <i type="int" name="NBANDS">    36</i>
  <i type="logical" name="LREAL"> F  </i>
  <i type="int" name="ISMEAR">     0</i>
  <i type="logical" name="LWAVE"> F  </i>
  <i type="logical" name="LCHARG"> F  </i>
  <v type="int" name="KPOINT_BSE">    -1     0     0     0</v>
  <i type="string" name="GGA"> PS</i>
  <i type="logical" name="LEPSILON"> T  </i>
 </incar>
 <structure name="primitive_cell" >
  <crystal>
   <varray name="basis" >
    <v>       1.42005454       0.81986888       5.62827908 </v>
    <v>      -1.42005454       0.81986888       5.62827908 </v>
    <v>       0.00000000      -1.63973774       5.62827908 </v>
   </varray>
   <i name="volume">     39.31663112 </i>
   <varray name="rec_basis" >
    <v>       0.35209915       0.20328454       0.05922473 </v>
    <v>      -0.35209915       0.20328454       0.05922473 </v>
    <v>      -0.00000000      -0.40656908       0.05922473 </v>
   </varray>
  </crystal>
  <varray name="positions" >
   <v>       0.00000000       0.00000000       0.00000000 </v>
   <v>       0.10956395       0.10956395       0.10956395 </v>
   <v>      -0.10956395      -0.10956395      -0.10956395 </v>
   <v>      -0.50000000      -0.50000000      -0.50000000 </v>
  </varray>
 </structure>
 <varray name="primitive_index" >
  <v type="int" >        1 </v>
  <v type="int" >        3 </v>
  <v type="int" >        4 </v>
  <v type="int" >        2 </v>
 </varray>
 <kpoints>
  <generation param="Gamma">
   <v type="int" name="divisions">      10       10       10 </v>
   <v name="usershift">      0.00000000       0.00000000       0.00000000 </v>
   <v name="genvec1">      0.10000000      -0.00000000       0.00000000 </v>
   <v name="genvec2">     -0.00000000       0.10000000       0.00000000 </v>
   <v name="genvec3">      0.00000000       0.00000000       0.10000000 </v>
   <v name="shift">      0.00000000       0.00000000       0.00000000 </v>
  </generation>
  <varray name="kpointlist" >
   <v>       0.00000000       0.00000000       0.00000000 </v>
   <v>       0.10000000       0.00000000       0.00000000 </v>
   <v>       0.20000000       0.00000000       0.00000000 </v>
   <v>       0.30000000       0.00000000       0.00000000 </v>
   <v>       0.40000000       0.00000000       0.00000000 </v>
   <v>       0.50000000       0.00000000       0.00000000 </v>
   <v>       0.10000000       0.10000000       0.00000000 </v>
   <v>       0.20000000       0.10000000       0.00000000 </v>
   <v>       0.30000000       0.10000000       0.00000000 </v>
   <v>       0.40000000       0.10000000       0.00000000 </v>
   <v>       0.50000000       0.10000000       0.00000000 </v>
   <v>      -0.40000000       0.10000000      -0.00000000 </v>
   <v>      -0.30000000       0.10000000      -0.00000000 </v>
   <v>      -0.20000000       0.10000000      -0.00000000 </v>
   <v>      -0.10000000       0.10000000       0.00000000 </v>
   <v>       0.20000000       0.20000000       0.00000000 </v>
   <v>       0.30000000       0.20000000       0.00000000 </v>
   <v>       0.40000000       0.20000000       0.00000000 </v>
   <v>       0.50000000       0.20000000      -0.00000000 </v>
   <v>      -0.40000000       0.20000000      -0.00000000 </v>
   <v>      -0.30000000       0.20000000      -0.00000000 </v>
   <v>      -0.20000000       0.20000000       0.00000000 </v>
   <v>       0.30000000       0.30000000       0.00000000 </v>
   <v>       0.40000000       0.30000000       0.00000000 </v>
   <v>       0.50000000       0.30000000       0.00000000 </v>
   <v>      -0.40000000       0.30000000       0.00000000 </v>
   <v>      -0.30000000       0.30000000       0.00000000 </v>
   <v>       0.40000000       0.40000000       0.00000000 </v>
   <v>       0.50000000       0.40000000      -0.00000000 </v>
   <v>      -0.40000000       0.40000000       0.00000000 </v>
   <v>       0.50000000       0.50000000       0.00000000 </v>
   <v>       0.10000000       0.10000000       0.10000000 </v>
   <v>       0.20000000       0.10000000       0.10000000 </v>
   <v>       0.30000000       0.10000000       0.10000000 </v>
   <v>       0.40000000       0.10000000       0.10000000 </v>
   <v>       0.50000000       0.10000000       0.10000000 </v>
   <v>      -0.40000000       0.10000000       0.10000000 </v>
   <v>      -0.30000000       0.10000000       0.10000000 </v>
   <v>      -0.20000000       0.10000000       0.10000000 </v>
   <v>      -0.10000000       0.10000000       0.10000000 </v>
   <v>       0.20000000       0.20000000       0.10000000 </v>
   <v>       0.30000000       0.20000000       0.10000000 </v>
   <v>       0.40000000       0.20000000       0.10000000 </v>
   <v>       0.50000000       0.20000000       0.10000000 </v>
   <v>      -0.40000000       0.20000000       0.10000000 </v>
   <v>      -0.30000000       0.20000000       0.10000000 </v>
   <v>      -0.20000000       0.20000000       0.10000000 </v>
   <v>      -0.10000000       0.20000000       0.10000000 </v>
   <v>       0.30000000       0.30000000       0.10000000 </v>
   <v>       0.40000000       0.30000000       0.10000000 </v>
   <v>       0.50000000       0.30000000       0.10000000 </v>
   <v>      -0.40000000       0.30000000       0.10000000 </v>
   <v>      -0.30000000       0.30000000       0.10000000 </v>
   <v>      -0.20000000       0.30000000       0.10000000 </v>
   <v>      -0.10000000       0.30000000       0.10000000 </v>
   <v>       0.40000000       0.40000000       0.10000000 </v>
   <v>       0.50000000       0.40000000       0.10000000 </v>
   <v>      -0.40000000       0.40000000       0.10000000 </v>
   <v>      -0.30000000       0.40000000       0.10000000 </v>
   <v>      -0.20000000       0.40000000       0.10000000 </v>
   <v>      -0.10000000       0.40000000       0.10000000 </v>
   <v>       0.50000000       0.50000000       0.10000000 </v>
   <v>      -0.40000000       0.50000000       0.10000000 </v>
   <v>      -0.30000000       0.50000000       0.10000000 </v>
   <v>      -0.20000000       0.50000000       0.10000000 </v>
   <v>      -0.10000000       0.50000000       0.10000000 </v>
   <v>      -0.40000000      -0.40000000       0.10000000 </v>
   <v>      -0.30000000      -0.40000000       0.10000000 </v>
   <v>      -0.20000000      -0.40000000       0.10000000 </v>
   <v>      -0.30000000      -0.30000000       0.10000000 </v>
   <v>      -0.20000000      -0.30000000       0.10000000 </v>
   <v>      -0.20000000      -0.20000000       0.10000000 </v>
   <v>       0.20000000       0.20000000       0.20000000 </v>
   <v>       0.30000000       0.20000000       0.20000000 </v>
   <v>       0.40000000       0.20000000       0.20000000 </v>
   <v>       0.50000000       0.20000000       0.20000000 </v>
   <v>      -0.40000000       0.20000000       0.20000000 </v>
   <v>      -0.30000000       0.20000000       0.20000000 </v>
   <v>      -0.20000000       0.20000000       0.20000000 </v>
   <v>       0.30000000       0.30000000       0.20000000 </v>
   <v>       0.40000000       0.30000000       0.20000000 </v>
   <v>       0.50000000       0.30000000       0.20000000 </v>
   <v>      -0.40000000       0.30000000       0.20000000 </v>
   <v>      -0.30000000       0.30000000       0.20000000 </v>
   <v>      -0.20000000       0.30000000       0.20000000 </v>
   <v>       0.40000000       0.40000000       0.20000000 </v>
   <v>       0.50000000       0.40000000       0.20000000 </v>
   <v>      -0.40000000       0.40000000       0.20000000 </v>
   <v>      -0.30000000       0.40000000       0.20000000 </v>
   <v>      -0.20000000       0.40000000       0.20000000 </v>
   <v>       0.50000000       0.50000000       0.20000000 </v>
   <v>      -0.40000000       0.50000000       0.20000000 </v>
   <v>      -0.30000000       0.50000000       0.20000000 </v>
   <v>      -0.20000000       0.50000000       0.20000000 </v>
   <v>      -0.40000000      -0.40000000       0.20000000 </v>
   <v>      -0.30000000      -0.40000000       0.20000000 </v>
   <v>      -0.30000000      -0.30000000       0.20000000 </v>
   <v>       0.30000000       0.30000000       0.30000000 </v>
   <v>       0.40000000       0.30000000       0.30000000 </v>
   <v>       0.50000000       0.30000000       0.30000000 </v>
   <v>      -0.40000000       0.30000000       0.30000000 </v>
   <v>      -0.30000000       0.30000000       0.30000000 </v>
   <v>       0.40000000       0.40000000       0.30000000 </v>
   <v>       0.50000000       0.40000000       0.30000000 </v>
   <v>      -0.40000000       0.40000000       0.30000000 </v>
   <v>      -0.30000000       0.40000000       0.30000000 </v>
   <v>       0.50000000       0.50000000       0.30000000 </v>
   <v>      -0.40000000       0.50000000       0.30000000 </v>
   <v>      -0.30000000       0.50000000       0.30000000 </v>
   <v>      -0.40000000      -0.40000000       0.30000000 </v>
   <v>       0.40000000       0.40000000       0.40000000 </v>
   <v>       0.50000000       0.40000000       0.40000000 </v>
   <v>      -0.40000000       0.40000000       0.40000000 </v>
   <v>       0.50000000       0.50000000       0.40000000 </v>
   <v>      -0.40000000       0.50000000       0.40000000 </v>
   <v>       0.50000000       0.50000000       0.50000000 </v>
  </varray>
  <varray name="weights" >
   <v>       0.00100000 </v>
   <v>       0.00600000 </v>
   <v>       0.00600000 </v>
   <v>       0.00600000 </v>
   <v>       0.00600000 </v>
   <v>       0.00300000 </v>
   <v>       0.00600000 </v>
   <v>       0.01200000 </v>
   <v>       0.01200000 </v>
   <v>       0.01200000 </v>
   <v>       0.01200000 </v>
   <v>       0.01200000 </v>
   <v>       0.01200000 </v>
   <v>       0.01200000 </v>
   <v>       0.00600000 </v>
   <v>       0.00600000 </v>
   <v>       0.01200000 </v>
   <v>       0.01200000 </v>
   <v>       0.01200000 </v>
   <v>       0.01200000 </v>
   <v>       0.01200000 </v>
   <v>       0.00600000 </v>
   <v>       0.00600000 </v>
   <v>       0.01200000 </v>
   <v>       0.01200000 </v>
   <v>       0.01200000 </v>
   <v>       0.00600000 </v>
   <v>       0.00600000 </v>
   <v>       0.01200000 </v>
   <v>       0.00600000 </v>
   <v>       0.00300000 </v>
   <v>       0.00200000 </v>
   <v>       0.00600000 </v>
   <v>       0.00600000 </v>
   <v>       0.00600000 </v>
   <v>       0.00600000 </v>
   <v>       0.00600000 </v>
   <v>       0.00600000 </v>
   <v>       0.00600000 </v>
   <v>       0.00600000 </v>
   <v>       0.00600000 </v>
   <v>       0.01200000 </v>
   <v>       0.01200000 </v>
   <v>       0.01200000 </v>
   <v>       0.01200000 </v>
   <v>       0.01200000 </v>
   <v>       0.01200000 </v>
   <v>       0.01200000 </v>
   <v>       0.00600000 </v>
   <v>       0.01200000 </v>
   <v>       0.01200000 </v>
   <v>       0.01200000 </v>
   <v>       0.01200000 </v>
   <v>       0.01200000 </v>
   <v>       0.01200000 </v>
   <v>       0.00600000 </v>
   <v>       0.01200000 </v>
   <v>       0.01200000 </v>
   <v>       0.01200000 </v>
   <v>       0.01200000 </v>
   <v>       0.01200000 </v>
   <v>       0.00600000 </v>
   <v>       0.01200000 </v>
   <v>       0.01200000 </v>
   <v>       0.01200000 </v>
   <v>       0.00600000 </v>
   <v>       0.00600000 </v>
   <v>       0.01200000 </v>
   <v>       0.01200000 </v>
   <v>       0.00600000 </v>
   <v>       0.01200000 </v>
   <v>       0.00600000 </v>
   <v>       0.00200000 </v>
   <v>       0.00600000 </v>
   <v>       0.00600000 </v>
   <v>       0.00600000 </v>
   <v>       0.00600000 </v>
   <v>       0.00600000 </v>
   <v>       0.00600000 </v>
   <v>       0.00600000 </v>
   <v>       0.01200000 </v>
   <v>       0.01200000 </v>
   <v>       0.01200000 </v>
   <v>       0.01200000 </v>
   <v>       0.01200000 </v>
   <v>       0.00600000 </v>
   <v>       0.01200000 </v>
   <v>       0.01200000 </v>
   <v>       0.01200000 </v>
   <v>       0.01200000 </v>
   <v>       0.00600000 </v>
   <v>       0.01200000 </v>
   <v>       0.01200000 </v>
   <v>       0.00600000 </v>
   <v>       0.00600000 </v>
   <v>       0.01200000 </v>
   <v>       0.00600000 </v>
   <v>       0.00200000 </v>
   <v>       0.00600000 </v>
   <v>       0.00600000 </v>
   <v>       0.00600000 </v>
   <v>       0.00600000 </v>
   <v>       0.00600000 </v>
   <v>       0.01200000 </v>
   <v>       0.01200000 </v>
   <v>       0.01200000 </v>
   <v>       0.00600000 </v>
   <v>       0.01200000 </v>
   <v>       0.00600000 </v>
   <v>       0.00600000 </v>
   <v>       0.00200000 </v>
   <v>       0.00600000 </v>
   <v>       0.00600000 </v>
   <v>       0.00600000 </v>
   <v>       0.00600000 </v>
   <v>       0.00100000 </v>
  </varray>
 </kpoints>
 <parameters>
  <separator name="general" >
   <i type="string" name="SYSTEM">unknown system</i>
   <i type="logical" name="LCOMPAT"> F  </i>
  </separator>
  <separator name="electronic" >
   <i type="string" name="PREC">accura</i>
   <i name="ENMAX">    550.00000000</i>
   <i name="ENAUG">    982.89200000</i>
   <i name="EDIFF">      0.00000010</i>
   <i type="int" name="IALGO">    38</i>
   <i type="int" name="IWAVPR">    11</i>
   <i type="int" name="NBANDS">    36</i>
   <i name="NELECT">     34.00000000</i>
   <i type="int" name="TURBO">     0</i>
   <i type="int" name="IRESTART">     0</i>
   <i type="int" name="NREBOOT">     0</i>
   <i type="int" name="NMIN">     0</i>
   <i name="EREF">      0.00000000</i>
   <separator name="electronic smearing" >
    <i type="int" name="ISMEAR">     0</i>
    <i name="SIGMA">      0.20000000</i>
    <i name="KSPACING">      0.50000000</i>
    <i type="logical" name="KGAMMA"> T  </i>
   </separator>
   <separator name="electronic projectors" >
    <i type="logical" name="LREAL"> F  </i>
    <v name="ROPT">      0.00000000      0.00000000      0.00000000</v>
    <i type="int" name="LMAXPAW">  -100</i>
    <i type="int" name="LMAXMIX">     2</i>
    <i type="logical" name="NLSPLINE"> F  </i>
   </separator>
   <separator name="electronic startup" >
    <i type="int" name="ISTART">     0</i>
    <i type="int" name="ICHARG">     2</i>
    <i type="int" name="INIWAV">     1</i>
   </separator>
   <separator name="electronic spin" >
    <i type="int" name="ISPIN">     1</i>
    <i type="logical" name="LNONCOLLINEAR"> F  </i>
    <v name="MAGMOM">      1.00000000      1.00000000      1.00000000      1.00000000</v>
    <i name="NUPDOWN">     -1.00000000</i>
    <i type="logical" name="LSORBIT"> F  </i>
    <v name="SAXIS">      0.00000000      0.00000000      1.00000000</v>
    <i type="logical" name="LSPIRAL"> F  </i>
    <v name="QSPIRAL">      0.00000000      0.00000000      0.00000000</v>
    <i type="logical" name="LZEROZ"> F  </i>
   </separator>
   <separator name="electronic exchange-correlation" >
    <i type="logical" name="LASPH"> F  </i>
    <i type="logical" name="LMETAGGA"> F  </i>
   </separator>
   <separator name="electronic convergence" >
    <i type="int" name="NELM">    60</i>
    <i type="int" name="NELMDL">     0</i>
    <i type="int" name="NELMIN">     2</i>
    <i name="ENINI">    550.00000000</i>
    <separator name="electronic convergence detail" >
     <i type="logical" name="LDIAG"> T  </i>
     <i type="logical" name="LSUBROT"> F  </i>
     <i name="WEIMIN">      0.00100000</i>
     <i name="EBREAK">      0.00000000</i>
     <i name="DEPER">      0.30000000</i>
     <i type="int" name="NRMM">     4</i>
     <i name="TIME">      0.40000000</i>
    </separator>
   </separator>
   <separator name="electronic mixer" >
    <i name="AMIX">      0.40000000</i>
    <i name="BMIX">      1.00000000</i>
    <i name="AMIN">      0.10000000</i>
    <i name="AMIX_MAG">      1.60000000</i>
    <i name="BMIX_MAG">      1.00000000</i>
    <separator name="electronic mixer details" >
     <i type="int" name="IMIX">     4</i>
     <i type="logical" name="MIXFIRST"> F  </i>
     <i type="int" name="MAXMIX">   -45</i>
     <i name="WC">    100.00000000</i>
     <i type="int" name="INIMIX">     1</i>
     <i type="int" name="MIXPRE">     1</i>
     <i type="int" name="MREMOVE">     5</i>
    </separator>
   </separator>
   <separator name="electronic dipolcorrection" >
    <i type="logical" name="LDIPOL"> F  </i>
    <i type="logical" name="LMONO"> F  </i>
    <i type="int" name="IDIPOL">     0</i>
    <i name="EPSILON">      1.00000000</i>
    <v name="DIPOL">   -100.00000000   -100.00000000   -100.00000000</v>
    <i name="EFIELD">      0.00000000</i>
   </separator>
  </separator>
  <separator name="grids" >
   <i type="int" name="NGX">    48</i>
   <i type="int" name="NGY">    48</i>
   <i type="int" name="NGZ">    48</i>
   <i type="int" name="NGXF">    96</i>
   <i type="int" name="NGYF">    96</i>
   <i type="int" name="NGZF">    96</i>
   <i type="logical" name="ADDGRID"> T  </i>
  </separator>
  <separator name="ionic" >
   <i type="int" name="NSW">     1</i>
   <i type="int" name="IBRION">     8</i>
   <i type="int" name="MDALGO">     0</i>
   <i type="int" name="ISIF">     2</i>
   <i name="PSTRESS">      0.00000000</i>
   <i name="EDIFFG">      0.00000100</i>
   <i type="int" name="NFREE">     0</i>
   <i name="POTIM">      0.50000000</i>
   <i name="SMASS">     -3.00000000</i>
   <i name="SCALEE">      1.00000000</i>
  </separator>
  <separator name="ionic md" >
   <i name="TEBEG">      0.00010000</i>
   <i name="TEEND">      0.00010000</i>
   <i type="int" name="NBLOCK">     1</i>
   <i type="int" name="KBLOCK">     1</i>
   <i type="int" name="NPACO">   256</i>
   <i name="APACO">     16.00000000</i>
  </separator>
  <separator name="symmetry" >
   <i type="int" name="ISYM">     2</i>
   <i name="SYMPREC">      0.00001000</i>
  </separator>
  <separator name="dos" >
   <i type="int" name="LORBIT">     0</i>
   <v name="RWIGS">     -1.00000000     -1.00000000     -1.00000000</v>
   <i type="int" name="NEDOS">   301</i>
   <i name="EMIN">     10.00000000</i>
   <i name="EMAX">    -10.00000000</i>
   <i name="EFERMI">      0.00000000</i>
  </separator>
  <separator name="writing" >
   <i type="int" name="NWRITE">     2</i>
   <i type="logical" name="LWAVE"> F  </i>
   <i type="logical" name="LDOWNSAMPLE"> F  </i>
   <i type="logical" name="LCHARG"> F  </i>
   <i type="logical" name="LPARD"> F  </i>
   <i type="logical" name="LVTOT"> F  </i>
   <i type="logical" name="LVHAR"> F  </i>
   <i type="logical" name="LELF"> F  </i>
   <i type="logical" name="LOPTICS"> F  </i>
   <v name="STM">      0.00000000      0.00000000      0.00000000      0.00000000      0.00000000      0.00000000      0.00000000</v>
  </separator>
  <separator name="performance" >
   <i type="int" name="NPAR">     2</i>
   <i type="int" name="NSIM">     4</i>
   <i type="int" name="NBLK">    -1</i>
   <i type="logical" name="LPLANE"> T  </i>
   <i type="logical" name="LSCALAPACK"> T  </i>
   <i type="logical" name="LSCAAWARE"> F  </i>
   <i type="logical" name="LSCALU"> F  </i>
   <i type="logical" name="LASYNC"> F  </i>
   <i type="logical" name="LORBITALREAL"> F  </i>
  </separator>
  <separator name="miscellaneous" >
   <i type="int" name="IDIOT">     3</i>
   <i type="int" name="ISPECIAL">     0</i>
   <i type="logical" name="LMUSIC"> F  </i>
   <v name="POMASS">     63.54600000     26.98200000     16.00000000</v>
   <v name="DARWINR">      0.00000000      0.00000000      0.00000000</v>
   <v name="DARWINV">      1.00000000      1.00000000      1.00000000</v>
   <i type="logical" name="LCORR"> T  </i>
  </separator>
  <i type="logical" name="GGA_COMPAT"> T  </i>
  <i type="logical" name="LBERRY"> F  </i>
  <i type="int" name="ICORELEVEL">     0</i>
  <i type="logical" name="LDAU"> F  </i>
  <i type="int" name="I_CONSTRAINED_M">     0</i>
  <separator name="electronic exchange-correlation" >
   <i type="string" name="GGA">PS</i>
   <i type="int" name="VOSKOWN">     0</i>
   <i type="logical" name="LHFCALC"> F  </i>
   <i type="string" name="PRECFOCK"></i>
   <i type="logical" name="LSYMGRAD"> F  </i>
   <i type="logical" name="LHFONE"> F  </i>
   <i type="logical" name="LRHFCALC"> F  </i>
   <i type="logical" name="LTHOMAS"> F  </i>
   <i type="logical" name="LMODELHF"> F  </i>
   <i name="ENCUT4O">     -1.00000000</i>
   <i type="int" name="EXXOEP">     0</i>
   <i type="int" name="FOURORBIT">     0</i>
   <i name="AEXX">      0.00000000</i>
   <i name="HFALPHA">      0.00000000</i>
   <i name="MCALPHA">      0.00000000</i>
   <i name="ALDAX">      1.00000000</i>
   <i name="AGGAX">      1.00000000</i>
   <i name="ALDAC">      1.00000000</i>
   <i name="AGGAC">      1.00000000</i>
   <i type="int" name="NKREDX">     1</i>
   <i type="int" name="NKREDY">     1</i>
   <i type="int" name="NKREDZ">     1</i>
   <i type="logical" name="SHIFTRED"> F  </i>
   <i type="logical" name="ODDONLY"> F  </i>
   <i type="logical" name="EVENONLY"> F  </i>
   <i type="int" name="LMAXFOCK">     0</i>
   <i type="int" name="NMAXFOCKAE">     0</i>
   <i type="logical" name="LFOCKAEDFT"> F  </i>
   <i name="HFSCREEN">      0.00000000</i>
   <i name="HFSCREENC">      0.00000000</i>
   <i type="int" name="NBANDSGWLOW">     0</i>
  </separator>
  <separator name="vdW DFT" >
   <i type="logical" name="LUSE_VDW"> F  </i>
   <i name="Zab_VDW">     -0.84910000</i>
   <i name="PARAM1">      0.12340000</i>
   <i name="PARAM2">      1.00000000</i>
   <i name="PARAM3">      0.00000000</i>
  </separator>
  <separator name="model GW" >
   <i type="int" name="MODEL_GW">     0</i>
   <i name="MODEL_EPS0">      5.89749467</i>
   <i name="MODEL_ALPHA">      1.00000000</i>
  </separator>
  <separator name="linear response parameters" >
   <i type="logical" name="LEPSILON"> T  </i>
   <i type="logical" name="LRPA"> F  </i>
   <i type="logical" name="LNABLA"> F  </i>
   <i type="logical" name="LVEL"> F  </i>
   <i type="int" name="KINTER">     0</i>
   <i name="CSHIFT">      0.10000000</i>
   <i name="OMEGAMAX">     -1.00000000</i>
   <i name="DEG_THRESHOLD">      0.00200000</i>
   <i name="RTIME">     -0.10000000</i>
   <i name="WPLASMAI">      0.00000000</i>
   <v name="DFIELD">      0.00000000      0.00000000      0.00000000</v>
   <v name="WPLASMA">      0.00000000      0.00000000      0.00000000      0.00000000      0.00000000      0.00000000      0.00000000      0.00000000      0.00000000</v>
  </separator>
  <separator name="orbital magnetization" >
   <i type="logical" name="NUCIND"> F  </i>
   <v name="MAGPOS">      0.00000000      0.00000000      0.00000000</v>
   <i type="logical" name="LNICSALL"> T  </i>
   <i type="logical" name="ORBITALMAG"> F  </i>
   <i type="logical" name="LMAGBLOCH"> F  </i>
   <i type="logical" name="LCHIMAG"> F  </i>
   <i type="logical" name="LGAUGE"> T  </i>
   <i type="int" name="MAGATOM">     0</i>
   <v name="MAGDIPOL">      0.00000000      0.00000000      0.00000000</v>
   <v name="AVECCONST">      0.00000000      0.00000000      0.00000000</v>
  </separator>
  <separator name="response functions" >
   <i type="logical" name="LADDER"> F  </i>
   <i type="logical" name="LRPAFORCE"> F  </i>
   <i type="logical" name="LFXC"> F  </i>
   <i type="logical" name="LHARTREE"> T  </i>
   <i type="int" name="IBSE">     0</i>
   <v type="int" name="KPOINT">    -1     0     0     0</v>
   <i type="logical" name="LTCTE"> F  </i>
   <i type="logical" name="LTETE"> F  </i>
   <i type="logical" name="LTRIPLET"> F  </i>
   <i type="logical" name="LFXCEPS"> F  </i>
   <i type="logical" name="LFXHEG"> F  </i>
   <i type="int" name="NATURALO">     2</i>
   <i type="logical" name="L2ORDER"> F  </i>
   <i type="logical" name="LMP2LT"> F  </i>
   <i type="logical" name="LUSEW"> F  </i>
   <i name="ENCUTGW">     -2.00000000</i>
   <i name="ENCUTGWSOFT">     -2.00000000</i>
   <i name="ENCUTLF">     -1.00000000</i>
   <i type="int" name="LMAXMP2">    -1</i>
   <i name="SCISSOR">      0.00000000</i>
   <i type="int" name="NOMEGA">     0</i>
   <i type="int" name="NOMEGAR">     0</i>
   <i type="int" name="NBANDSGW">    -1</i>
   <i type="int" name="NBANDSO">    -1</i>
   <i type="int" name="NBANDSV">    -1</i>
   <i type="int" name="NELM">     1</i>
   <i type="int" name="NELMHF">     1</i>
   <i type="int" name="DIM">     3</i>
   <i type="int" name="ANTIRES">     0</i>
   <i name="OMEGAMAX">    -30.00000000</i>
   <i name="OMEGAMIN">    -30.00000000</i>
   <i name="OMEGATL">   -200.00000000</i>
   <i type="int" name="OMEGAGRID">   140</i>
   <i name="CSHIFT">     -0.10000000</i>
   <i type="logical" name="SELFENERGY"> F  </i>
   <i type="logical" name="LSPECTRAL"> F  </i>
   <i type="logical" name="LSPECTRALGW"> F  </i>
   <i type="logical" name="LSINGLES"> F  </i>
   <i type="logical" name="LFERMIGW"> F  </i>
   <i type="logical" name="ODDONLYGW"> F  </i>
   <i type="logical" name="EVENONLYGW"> F  </i>
   <i type="int" name="NKREDLFX">     1</i>
   <i type="int" name="NKREDLFY">     1</i>
   <i type="int" name="NKREDLFZ">     1</i>
   <i type="int" name="MAXMEM">  2800</i>
   <i type="int" name="TELESCOPE">     0</i>
   <i type="int" name="TAUPAR">     1</i>
   <i type="int" name="OMEGAPAR">    -1</i>
   <i name="LAMBDA">      1.00000000</i>
  </separator>
  <separator name="External order field" >
   <i name="OFIELD_KAPPA">      0.00000000</i>
   <v name="OFIELD_K">      0.00000000      0.00000000      0.00000000</v>
   <i name="OFIELD_Q6_NEAR">      0.00000000</i>
   <i name="OFIELD_Q6_FAR">      0.00000000</i>
   <i name="OFIELD_A">      0.00000000</i>
  </separator>
 </parameters>
 <atominfo>
  <atoms>       4 </atoms>
  <types>       3 </types>
  <array name="atoms" >
   <dimension dim="1">ion</dimension>
   <field type="string">element</field>
   <field type="int">atomtype</field>
   <set>
    <rc><c>Cu</c><c>   1</c></rc>
    <rc><c>Al</c><c>   2</c></rc>
    <rc><c>O </c><c>   3</c></rc>
    <rc><c>O </c><c>   3</c></rc>
   </set>
  </array>
  <array name="atomtypes" >
   <dimension dim="1">type</dimension>
   <field type="int">atomspertype</field>
   <field type="string">element</field>
   <field>mass</field>
   <field>valence</field>
   <field type="string">pseudopotential</field>
   <set>
    <rc><c>   1</c><c>Cu</c><c>     63.54600000</c><c>     19.00000000</c><c>  PAW_PBE Cu_sv_GW 05Dec2013            </c></rc>
    <rc><c>   1</c><c>Al</c><c>     26.98200000</c><c>      3.00000000</c><c>  PAW_PBE Al_GW 19Mar2012               </c></rc>
    <rc><c>   2</c><c>O </c><c>     16.00000000</c><c>      6.00000000</c><c>  PAW_PBE O_GW 28Sep2005                </c></rc>
   </set>
  </array>
 </atominfo>
 <structure name="initialpos" >
  <crystal>
   <varray name="basis" >
    <v>       1.42005454       0.81986888       5.62827908 </v>
    <v>      -1.42005454       0.81986888       5.62827908 </v>
    <v>       0.00000000      -1.63973774       5.62827908 </v>
   </varray>
   <i name="volume">     39.31663112 </i>
   <varray name="rec_basis" >
    <v>       0.35209915       0.20328454       0.05922473 </v>
    <v>      -0.35209915       0.20328454       0.05922473 </v>
    <v>      -0.00000000      -0.40656908       0.05922473 </v>
   </varray>
  </crystal>
  <varray name="positions" >
   <v>       0.00000000       0.00000000       0.00000000 </v>
   <v>       0.50000000       0.50000000       0.50000000 </v>
   <v>       0.10956395       0.10956395       0.10956395 </v>
   <v>       0.89043605       0.89043605       0.89043605 </v>
  </varray>
 </structure>
 <calculation>
  <scstep>
   <time name="dav">    9.85    9.92</time>
   <time name="total">   11.57   11.66</time>
   <energy>
    <i name="alphaZ">    167.28213848 </i>
    <i name="ewald">  -3351.06778565 </i>
    <i name="hartreedc">  -2426.61348804 </i>
    <i name="XCdc">    180.00703506 </i>
    <i name="pawpsdc">   5069.77841691 </i>
    <i name="pawaedc">  -5389.95852422 </i>
    <i name="eentropy">     -0.02693813 </i>
    <i name="bandstr">   -128.67841982 </i>
    <i name="atom">   6293.50105541 </i>
    <i name="e_fr_energy">    414.22349000 </i>
    <i name="e_wo_entrp">    414.25042814 </i>
    <i name="e_0_energy">    414.23695907 </i>
   </energy>
  </scstep>
  <scstep>
   <time name="dav">    9.48    9.56</time>
   <time name="total">    9.49    9.57</time>
   <energy>
    <i name="e_fr_energy">      2.43182915 </i>
    <i name="e_wo_entrp">      2.43759820 </i>
    <i name="e_0_energy">      2.43471368 </i>
   </energy>
  </scstep>
  <scstep>
   <time name="dav">    9.92   10.00</time>
   <time name="total">    9.92   10.00</time>
   <energy>
    <i name="e_fr_energy">    -30.40944072 </i>
    <i name="e_wo_entrp">    -30.40122315 </i>
    <i name="e_0_energy">    -30.40533194 </i>
   </energy>
  </scstep>
  <scstep>
   <time name="dav">    9.98   10.07</time>
   <time name="total">    9.99   10.07</time>
   <energy>
    <i name="e_fr_energy">    -31.58286267 </i>
    <i name="e_wo_entrp">    -31.57392554 </i>
    <i name="e_0_energy">    -31.57839410 </i>
   </energy>
  </scstep>
  <scstep>
   <time name="dav">    9.50    9.58</time>
   <time name="total">   11.18   11.27</time>
   <energy>
    <i name="e_fr_energy">    -31.63005802 </i>
    <i name="e_wo_entrp">    -31.62111496 </i>
    <i name="e_0_energy">    -31.62558649 </i>
   </energy>
  </scstep>
  <scstep>
   <time name="dav">    9.22    9.29</time>
   <time name="total">   12.61   12.70</time>
   <energy>
    <i name="e_fr_energy">    -29.66962346 </i>
    <i name="e_wo_entrp">    -29.66962346 </i>
    <i name="e_0_energy">    -29.66962346 </i>
   </energy>
  </scstep>
  <scstep>
   <time name="dav">    8.73    8.80</time>
   <time name="total">   12.12   12.20</time>
   <energy>
    <i name="e_fr_energy">    -27.42036706 </i>
    <i name="e_wo_entrp">    -27.42036706 </i>
    <i name="e_0_energy">    -27.42036706 </i>
   </energy>
  </scstep>
  <scstep>
   <time name="dav">   10.74   10.83</time>
   <time name="total">   14.14   14.24</time>
   <energy>
    <i name="e_fr_energy">    -27.42111930 </i>
    <i name="e_wo_entrp">    -27.42111930 </i>
    <i name="e_0_energy">    -27.42111930 </i>
   </energy>
  </scstep>
  <scstep>
   <time name="dav">   10.08   10.17</time>
   <time name="total">   13.47   13.57</time>
   <energy>
    <i name="e_fr_energy">    -27.41356217 </i>
    <i name="e_wo_entrp">    -27.41356217 </i>
    <i name="e_0_energy">    -27.41356217 </i>
   </energy>
  </scstep>
  <scstep>
   <time name="dav">   10.24   10.33</time>
   <time name="total">   13.86   13.97</time>
   <energy>
    <i name="e_fr_energy">    -27.41161882 </i>
    <i name="e_wo_entrp">    -27.41161882 </i>
    <i name="e_0_energy">    -27.41161882 </i>
   </energy>
  </scstep>
  <scstep>
   <time name="dav">   10.37   10.47</time>
   <time name="total">   14.28   14.41</time>
   <energy>
    <i name="e_fr_energy">    -27.41129313 </i>
    <i name="e_wo_entrp">    -27.41129313 </i>
    <i name="e_0_energy">    -27.41129313 </i>
   </energy>
  </scstep>
  <scstep>
   <time name="dav">   13.11   13.23</time>
   <time name="total">   17.02   17.17</time>
   <energy>
    <i name="e_fr_energy">    -27.41128146 </i>
    <i name="e_wo_entrp">    -27.41128146 </i>
    <i name="e_0_energy">    -27.41128146 </i>
   </energy>
  </scstep>
  <scstep>
   <time name="dav">   11.48   11.59</time>
   <time name="total">   15.41   15.54</time>
   <energy>
    <i name="e_fr_energy">    -27.41128031 </i>
    <i name="e_wo_entrp">    -27.41128031 </i>
    <i name="e_0_energy">    -27.41128031 </i>
   </energy>
  </scstep>
  <scstep>
   <time name="dav">   11.99   12.10</time>
   <time name="total">   15.88   16.02</time>
   <energy>
    <i name="e_fr_energy">    -27.41128016 </i>
    <i name="e_wo_entrp">    -27.41128016 </i>
    <i name="e_0_energy">    -27.41128016 </i>
   </energy>
  </scstep>
  <scstep>
   <time name="dav">    7.75    7.82</time>
   <time name="total">    9.76    9.84</time>
   <energy>
    <i name="alphaZ">    167.28213848 </i>
    <i name="ewald">  -3351.06778565 </i>
    <i name="hartreedc">  -2400.82155990 </i>
    <i name="XCdc">    180.92822346 </i>
    <i name="pawpsdc">   5402.03389339 </i>
    <i name="pawaedc">  -5725.86780632 </i>
    <i name="eentropy">     -0.00000000 </i>
    <i name="bandstr">   -593.39943905 </i>
    <i name="atom">   6293.50105541 </i>
    <i name="e_fr_energy">    -27.41128017 </i>
    <i name="e_wo_entrp">    -27.41128017 </i>
    <i name="e_0_energy">    -27.41128017 </i>
   </energy>
  </scstep>
  <structure>
   <crystal>
    <varray name="basis" >
     <v>       1.42005454       0.81986888       5.62827908 </v>
     <v>      -1.42005454       0.81986888       5.62827908 </v>
     <v>       0.00000000      -1.63973774       5.62827908 </v>
    </varray>
    <i name="volume">     39.31663112 </i>
    <varray name="rec_basis" >
     <v>       0.35209915       0.20328454       0.05922473 </v>
     <v>      -0.35209915       0.20328454       0.05922473 </v>
     <v>      -0.00000000      -0.40656908       0.05922473 </v>
    </varray>
   </crystal>
   <varray name="positions" >
    <v>       0.00000000       0.00000000       0.00000000 </v>
    <v>       0.50000000       0.50000000       0.50000000 </v>
    <v>       0.10956395       0.10956395       0.10956395 </v>
    <v>       0.89043605       0.89043605       0.89043605 </v>
   </varray>
  </structure>
  <varray name="forces" >
   <v>      -0.00000000      -0.00000000       0.00000000 </v>
   <v>      -0.00000000      -0.00000000      -0.00000000 </v>
   <v>       0.00000000       0.00000000       0.00047286 </v>
   <v>      -0.00000000      -0.00000000      -0.00047286 </v>
  </varray>
  <varray name="stress" >
   <v>      -0.52303114       0.00000000      -0.00000000 </v>
   <v>       0.00000000      -0.52303114      -0.00000000 </v>
   <v>       0.00000000      -0.00000000      -0.51699503 </v>
  </varray>
  <energy>
   <i name="e_fr_energy">    -27.41128017 </i>
   <i name="e_wo_entrp">    -27.41128017 </i>
   <i name="e_0_energy">     -0.00000000 </i>
  </energy>
  <scstep>
   <time name="total">    8.47    8.54</time>
   <energy>
    <i name="e_fr_energy">   -290.52653554 </i>
    <i name="e_wo_entrp">   -290.52653554 </i>
    <i name="e_0_energy">   -290.52653554 </i>
   </energy>
  </scstep>
  <scstep>
   <time name="total">   14.27   14.38</time>
   <energy>
    <i name="e_fr_energy">   -291.75122378 </i>
    <i name="e_wo_entrp">   -291.75122378 </i>
    <i name="e_0_energy">   -291.75122378 </i>
   </energy>
  </scstep>
  <scstep>
   <time name="total">   14.76   14.86</time>
   <energy>
    <i name="e_fr_energy">   -300.22776541 </i>
    <i name="e_wo_entrp">   -300.22776541 </i>
    <i name="e_0_energy">   -300.22776541 </i>
   </energy>
  </scstep>
  <scstep>
   <time name="total">   10.79   10.86</time>
   <energy>
    <i name="e_fr_energy">   -301.13962514 </i>
    <i name="e_wo_entrp">   -301.13962514 </i>
    <i name="e_0_energy">   -301.13962514 </i>
   </energy>
  </scstep>
  <scstep>
   <time name="total">   10.71   10.78</time>
   <energy>
    <i name="e_fr_energy">   -301.25296240 </i>
    <i name="e_wo_entrp">   -301.25296240 </i>
    <i name="e_0_energy">   -301.25296240 </i>
   </energy>
  </scstep>
  <scstep>
   <time name="total">   10.91   10.98</time>
   <energy>
    <i name="e_fr_energy">   -301.28425363 </i>
    <i name="e_wo_entrp">   -301.28425363 </i>
    <i name="e_0_energy">   -301.28425363 </i>
   </energy>
  </scstep>
  <scstep>
   <time name="total">   10.88   10.96</time>
   <energy>
    <i name="e_fr_energy">   -301.29214789 </i>
    <i name="e_wo_entrp">   -301.29214789 </i>
    <i name="e_0_energy">   -301.29214789 </i>
   </energy>
  </scstep>
  <scstep>
   <time name="total">   10.98   11.05</time>
   <energy>
    <i name="e_fr_energy">   -301.29473479 </i>
    <i name="e_wo_entrp">   -301.29473479 </i>
    <i name="e_0_energy">   -301.29473479 </i>
   </energy>
  </scstep>
  <scstep>
   <time name="total">   10.83   10.91</time>
   <energy>
    <i name="e_fr_energy">   -301.29577547 </i>
    <i name="e_wo_entrp">   -301.29577547 </i>
    <i name="e_0_energy">   -301.29577547 </i>
   </energy>
  </scstep>
  <scstep>
   <time name="total">   10.95   11.02</time>
   <energy>
    <i name="e_fr_energy">   -301.29629054 </i>
    <i name="e_wo_entrp">   -301.29629054 </i>
    <i name="e_0_energy">   -301.29629054 </i>
   </energy>
  </scstep>
  <scstep>
   <time name="total">   10.86   10.93</time>
   <energy>
    <i name="e_fr_energy">   -301.29646120 </i>
    <i name="e_wo_entrp">   -301.29646120 </i>
    <i name="e_0_energy">   -301.29646120 </i>
   </energy>
  </scstep>
  <scstep>
   <time name="total">   10.98   11.06</time>
   <energy>
    <i name="e_fr_energy">   -301.29661408 </i>
    <i name="e_wo_entrp">   -301.29661408 </i>
    <i name="e_0_energy">   -301.29661408 </i>
   </energy>
  </scstep>
  <scstep>
   <time name="total">   10.76   10.84</time>
   <energy>
    <i name="e_fr_energy">   -301.29667559 </i>
    <i name="e_wo_entrp">   -301.29667559 </i>
    <i name="e_0_energy">   -301.29667559 </i>
   </energy>
  </scstep>
  <scstep>
   <time name="total">   10.77   10.85</time>
   <energy>
    <i name="e_fr_energy">   -301.29672229 </i>
    <i name="e_wo_entrp">   -301.29672229 </i>
    <i name="e_0_energy">   -301.29672229 </i>
   </energy>
  </scstep>
  <scstep>
   <time name="total">   10.64   10.72</time>
   <energy>
    <i name="e_fr_energy">   -301.29675651 </i>
    <i name="e_wo_entrp">   -301.29675651 </i>
    <i name="e_0_energy">   -301.29675651 </i>
   </energy>
  </scstep>
  <scstep>
   <time name="total">   10.58   10.66</time>
   <energy>
    <i name="e_fr_energy">   -301.29678421 </i>
    <i name="e_wo_entrp">   -301.29678421 </i>
    <i name="e_0_energy">   -301.29678421 </i>
   </energy>
  </scstep>
  <scstep>
   <time name="total">   10.55   10.62</time>
   <energy>
    <i name="e_fr_energy">   -301.29679950 </i>
    <i name="e_wo_entrp">   -301.29679950 </i>
    <i name="e_0_energy">   -301.29679950 </i>
   </energy>
  </scstep>
  <scstep>
   <time name="total">   10.51   10.59</time>
   <energy>
    <i name="e_fr_energy">   -301.29681083 </i>
    <i name="e_wo_entrp">   -301.29681083 </i>
    <i name="e_0_energy">   -301.29681083 </i>
   </energy>
  </scstep>
  <scstep>
   <time name="total">   10.62   10.70</time>
   <energy>
    <i name="e_fr_energy">   -301.29682936 </i>
    <i name="e_wo_entrp">   -301.29682936 </i>
    <i name="e_0_energy">   -301.29682936 </i>
   </energy>
  </scstep>
  <scstep>
   <time name="total">   10.55   10.63</time>
   <energy>
    <i name="e_fr_energy">   -301.29683629 </i>
    <i name="e_wo_entrp">   -301.29683629 </i>
    <i name="e_0_energy">   -301.29683629 </i>
   </energy>
  </scstep>
  <scstep>
   <time name="total">   10.62   10.70</time>
   <energy>
    <i name="e_fr_energy">   -301.29684224 </i>
    <i name="e_wo_entrp">   -301.29684224 </i>
    <i name="e_0_energy">   -301.29684224 </i>
   </energy>
  </scstep>
  <scstep>
   <time name="total">   10.54   10.62</time>
   <energy>
    <i name="e_fr_energy">   -301.29685455 </i>
    <i name="e_wo_entrp">   -301.29685455 </i>
    <i name="e_0_energy">   -301.29685455 </i>
   </energy>
  </scstep>
  <scstep>
   <time name="total">   10.55   10.62</time>
   <energy>
    <i name="e_fr_energy">   -301.29686303 </i>
    <i name="e_wo_entrp">   -301.29686303 </i>
    <i name="e_0_energy">   -301.29686303 </i>
   </energy>
  </scstep>
  <scstep>
   <time name="total">   10.53   10.60</time>
   <energy>
    <i name="e_fr_energy">   -301.29687256 </i>
    <i name="e_wo_entrp">   -301.29687256 </i>
    <i name="e_0_energy">   -301.29687256 </i>
   </energy>
  </scstep>
  <scstep>
   <time name="total">   10.60   10.67</time>
   <energy>
    <i name="e_fr_energy">   -301.29687276 </i>
    <i name="e_wo_entrp">   -301.29687276 </i>
    <i name="e_0_energy">   -301.29687276 </i>
   </energy>
  </scstep>
  <scstep>
   <time name="total">   10.55   10.63</time>
   <energy>
    <i name="e_fr_energy">   -301.29687261 </i>
    <i name="e_wo_entrp">   -301.29687261 </i>
    <i name="e_0_energy">   -301.29687261 </i>
   </energy>
  </scstep>
  <scstep>
   <time name="total">   10.47   10.54</time>
   <energy>
    <i name="e_fr_energy">   -301.29687172 </i>
    <i name="e_wo_entrp">   -301.29687172 </i>
    <i name="e_0_energy">   -301.29687172 </i>
   </energy>
  </scstep>
  <scstep>
   <time name="total">   10.54   10.61</time>
   <energy>
    <i name="e_fr_energy">   -301.29688799 </i>
    <i name="e_wo_entrp">   -301.29688799 </i>
    <i name="e_0_energy">   -301.29688799 </i>
   </energy>
  </scstep>
  <scstep>
   <time name="total">   10.65   10.73</time>
   <energy>
    <i name="e_fr_energy">   -301.29687602 </i>
    <i name="e_wo_entrp">   -301.29687602 </i>
    <i name="e_0_energy">   -301.29687602 </i>
   </energy>
  </scstep>
  <scstep>
   <time name="total">   10.59   10.68</time>
   <energy>
    <i name="e_fr_energy">   -301.29687900 </i>
    <i name="e_wo_entrp">   -301.29687900 </i>
    <i name="e_0_energy">   -301.29687900 </i>
   </energy>
  </scstep>
  <scstep>
   <time name="total">   10.62   10.70</time>
   <energy>
    <i name="e_fr_energy">   -301.29687342 </i>
    <i name="e_wo_entrp">   -301.29687342 </i>
    <i name="e_0_energy">   -301.29687342 </i>
   </energy>
  </scstep>
  <scstep>
   <time name="total">    7.19    7.26</time>
   <energy>
    <i name="e_fr_energy">   -291.61220580 </i>
    <i name="e_wo_entrp">   -291.61220580 </i>
    <i name="e_0_energy">   -291.61220580 </i>
   </energy>
  </scstep>
  <scstep>
   <time name="total">   12.11   12.21</time>
   <energy>
    <i name="e_fr_energy">   -289.33655999 </i>
    <i name="e_wo_entrp">   -289.33655999 </i>
    <i name="e_0_energy">   -289.33655999 </i>
   </energy>
  </scstep>
  <scstep>
   <time name="total">   13.31   13.43</time>
   <energy>
    <i name="e_fr_energy">   -299.00939401 </i>
    <i name="e_wo_entrp">   -299.00939401 </i>
    <i name="e_0_energy">   -299.00939401 </i>
   </energy>
  </scstep>
  <scstep>
   <time name="total">   10.98   11.07</time>
   <energy>
    <i name="e_fr_energy">   -299.92645985 </i>
    <i name="e_wo_entrp">   -299.92645985 </i>
    <i name="e_0_energy">   -299.92645985 </i>
   </energy>
  </scstep>
  <scstep>
   <time name="total">   10.95   11.04</time>
   <energy>
    <i name="e_fr_energy">   -300.01664766 </i>
    <i name="e_wo_entrp">   -300.01664766 </i>
    <i name="e_0_energy">   -300.01664766 </i>
   </energy>
  </scstep>
  <scstep>
   <time name="total">   11.10   11.19</time>
   <energy>
    <i name="e_fr_energy">   -300.03981356 </i>
    <i name="e_wo_entrp">   -300.03981356 </i>
    <i name="e_0_energy">   -300.03981356 </i>
   </energy>
  </scstep>
  <scstep>
   <time name="total">   11.04   11.13</time>
   <energy>
    <i name="e_fr_energy">   -300.04629375 </i>
    <i name="e_wo_entrp">   -300.04629375 </i>
    <i name="e_0_energy">   -300.04629375 </i>
   </energy>
  </scstep>
  <scstep>
   <time name="total">   10.99   11.09</time>
   <energy>
    <i name="e_fr_energy">   -300.04993365 </i>
    <i name="e_wo_entrp">   -300.04993365 </i>
    <i name="e_0_energy">   -300.04993365 </i>
   </energy>
  </scstep>
  <scstep>
   <time name="total">   10.99   11.09</time>
   <energy>
    <i name="e_fr_energy">   -300.05104810 </i>
    <i name="e_wo_entrp">   -300.05104810 </i>
    <i name="e_0_energy">   -300.05104810 </i>
   </energy>
  </scstep>
  <scstep>
   <time name="total">   10.99   11.08</time>
   <energy>
    <i name="e_fr_energy">   -300.05160069 </i>
    <i name="e_wo_entrp">   -300.05160069 </i>
    <i name="e_0_energy">   -300.05160069 </i>
   </energy>
  </scstep>
  <scstep>
   <time name="total">   10.87   10.96</time>
   <energy>
    <i name="e_fr_energy">   -300.05191330 </i>
    <i name="e_wo_entrp">   -300.05191330 </i>
    <i name="e_0_energy">   -300.05191330 </i>
   </energy>
  </scstep>
  <scstep>
   <time name="total">   10.85   10.94</time>
   <energy>
    <i name="e_fr_energy">   -300.05210680 </i>
    <i name="e_wo_entrp">   -300.05210680 </i>
    <i name="e_0_energy">   -300.05210680 </i>
   </energy>
  </scstep>
  <scstep>
   <time name="total">   10.83   10.92</time>
   <energy>
    <i name="e_fr_energy">   -300.05217058 </i>
    <i name="e_wo_entrp">   -300.05217058 </i>
    <i name="e_0_energy">   -300.05217058 </i>
   </energy>
  </scstep>
  <scstep>
   <time name="total">   10.82   10.91</time>
   <energy>
    <i name="e_fr_energy">   -300.05225626 </i>
    <i name="e_wo_entrp">   -300.05225626 </i>
    <i name="e_0_energy">   -300.05225626 </i>
   </energy>
  </scstep>
  <scstep>
   <time name="total">   10.67   10.75</time>
   <energy>
    <i name="e_fr_energy">   -300.05232049 </i>
    <i name="e_wo_entrp">   -300.05232049 </i>
    <i name="e_0_energy">   -300.05232049 </i>
   </energy>
  </scstep>
  <scstep>
   <time name="total">   10.61   10.69</time>
   <energy>
    <i name="e_fr_energy">   -300.05240956 </i>
    <i name="e_wo_entrp">   -300.05240956 </i>
    <i name="e_0_energy">   -300.05240956 </i>
   </energy>
  </scstep>
  <scstep>
   <time name="total">   10.66   10.74</time>
   <energy>
    <i name="e_fr_energy">   -300.05241603 </i>
    <i name="e_wo_entrp">   -300.05241603 </i>
    <i name="e_0_energy">   -300.05241603 </i>
   </energy>
  </scstep>
  <scstep>
   <time name="total">   10.55   10.63</time>
   <energy>
    <i name="e_fr_energy">   -300.05246183 </i>
    <i name="e_wo_entrp">   -300.05246183 </i>
    <i name="e_0_energy">   -300.05246183 </i>
   </energy>
  </scstep>
  <scstep>
   <time name="total">   10.54   10.62</time>
   <energy>
    <i name="e_fr_energy">   -300.05247772 </i>
    <i name="e_wo_entrp">   -300.05247772 </i>
    <i name="e_0_energy">   -300.05247772 </i>
   </energy>
  </scstep>
  <scstep>
   <time name="total">   10.73   10.82</time>
   <energy>
    <i name="e_fr_energy">   -300.05247797 </i>
    <i name="e_wo_entrp">   -300.05247797 </i>
    <i name="e_0_energy">   -300.05247797 </i>
   </energy>
  </scstep>
  <scstep>
   <time name="total">   10.59   10.68</time>
   <energy>
    <i name="e_fr_energy">   -300.05250545 </i>
    <i name="e_wo_entrp">   -300.05250545 </i>
    <i name="e_0_energy">   -300.05250545 </i>
   </energy>
  </scstep>
  <scstep>
   <time name="total">   10.52   10.60</time>
   <energy>
    <i name="e_fr_energy">   -300.05250173 </i>
    <i name="e_wo_entrp">   -300.05250173 </i>
    <i name="e_0_energy">   -300.05250173 </i>
   </energy>
  </scstep>
  <scstep>
   <time name="total">   10.55   10.63</time>
   <energy>
    <i name="e_fr_energy">   -300.05249746 </i>
    <i name="e_wo_entrp">   -300.05249746 </i>
    <i name="e_0_energy">   -300.05249746 </i>
   </energy>
  </scstep>
  <scstep>
   <time name="total">   10.45   10.54</time>
   <energy>
    <i name="e_fr_energy">   -300.05250339 </i>
    <i name="e_wo_entrp">   -300.05250339 </i>
    <i name="e_0_energy">   -300.05250339 </i>
   </energy>
  </scstep>
  <scstep>
   <time name="total">   10.52   10.61</time>
   <energy>
    <i name="e_fr_energy">   -300.05251531 </i>
    <i name="e_wo_entrp">   -300.05251531 </i>
    <i name="e_0_energy">   -300.05251531 </i>
   </energy>
  </scstep>
  <scstep>
   <time name="total">   10.57   10.66</time>
   <energy>
    <i name="e_fr_energy">   -300.05251432 </i>
    <i name="e_wo_entrp">   -300.05251432 </i>
    <i name="e_0_energy">   -300.05251432 </i>
   </energy>
  </scstep>
  <scstep>
   <time name="total">   10.43   10.52</time>
   <energy>
    <i name="e_fr_energy">   -300.05252550 </i>
    <i name="e_wo_entrp">   -300.05252550 </i>
    <i name="e_0_energy">   -300.05252550 </i>
   </energy>
  </scstep>
  <scstep>
   <time name="total">   10.46   10.54</time>
   <energy>
    <i name="e_fr_energy">   -300.05251838 </i>
    <i name="e_wo_entrp">   -300.05251838 </i>
    <i name="e_0_energy">   -300.05251838 </i>
   </energy>
  </scstep>
  <scstep>
   <time name="total">   10.53   10.61</time>
   <energy>
    <i name="e_fr_energy">   -300.05250969 </i>
    <i name="e_wo_entrp">   -300.05250969 </i>
    <i name="e_0_energy">   -300.05250969 </i>
   </energy>
  </scstep>
  <scstep>
   <time name="total">   10.49   10.58</time>
   <energy>
    <i name="e_fr_energy">   -300.05250857 </i>
    <i name="e_wo_entrp">   -300.05250857 </i>
    <i name="e_0_energy">   -300.05250857 </i>
   </energy>
  </scstep>
  <scstep>
   <time name="total">   10.54   10.63</time>
   <energy>
    <i name="e_fr_energy">   -300.05253893 </i>
    <i name="e_wo_entrp">   -300.05253893 </i>
    <i name="e_0_energy">   -300.05253893 </i>
   </energy>
  </scstep>
  <scstep>
   <time name="total">   10.55   10.64</time>
   <energy>
    <i name="e_fr_energy">   -300.05251614 </i>
    <i name="e_wo_entrp">   -300.05251614 </i>
    <i name="e_0_energy">   -300.05251614 </i>
   </energy>
  </scstep>
  <scstep>
   <time name="total">   10.44   10.52</time>
   <energy>
    <i name="e_fr_energy">   -300.05254066 </i>
    <i name="e_wo_entrp">   -300.05254066 </i>
    <i name="e_0_energy">   -300.05254066 </i>
   </energy>
  </scstep>
  <scstep>
   <time name="total">   10.41   10.49</time>
   <energy>
    <i name="e_fr_energy">   -300.05252222 </i>
    <i name="e_wo_entrp">   -300.05252222 </i>
    <i name="e_0_energy">   -300.05252222 </i>
   </energy>
  </scstep>
  <scstep>
   <time name="total">   10.66   10.75</time>
   <energy>
    <i name="e_fr_energy">   -300.05254079 </i>
    <i name="e_wo_entrp">   -300.05254079 </i>
    <i name="e_0_energy">   -300.05254079 </i>
   </energy>
  </scstep>
  <scstep>
   <time name="total">    7.18    7.24</time>
   <energy>
    <i name="e_fr_energy">   -292.96360123 </i>
    <i name="e_wo_entrp">   -292.96360123 </i>
    <i name="e_0_energy">   -292.96360123 </i>
   </energy>
  </scstep>
  <scstep>
   <time name="total">   12.01   12.11</time>
   <energy>
    <i name="e_fr_energy">   -292.77263677 </i>
    <i name="e_wo_entrp">   -292.77263677 </i>
    <i name="e_0_energy">   -292.77263677 </i>
   </energy>
  </scstep>
  <scstep>
   <time name="total">   13.14   13.24</time>
   <energy>
    <i name="e_fr_energy">   -298.43975814 </i>
    <i name="e_wo_entrp">   -298.43975814 </i>
    <i name="e_0_energy">   -298.43975814 </i>
   </energy>
  </scstep>
  <scstep>
   <time name="total">   10.87   10.95</time>
   <energy>
    <i name="e_fr_energy">   -299.19420038 </i>
    <i name="e_wo_entrp">   -299.19420038 </i>
    <i name="e_0_energy">   -299.19420038 </i>
   </energy>
  </scstep>
  <scstep>
   <time name="total">   10.83   10.91</time>
   <energy>
    <i name="e_fr_energy">   -299.32936443 </i>
    <i name="e_wo_entrp">   -299.32936443 </i>
    <i name="e_0_energy">   -299.32936443 </i>
   </energy>
  </scstep>
  <scstep>
   <time name="total">   11.04   11.12</time>
   <energy>
    <i name="e_fr_energy">   -299.35936511 </i>
    <i name="e_wo_entrp">   -299.35936511 </i>
    <i name="e_0_energy">   -299.35936511 </i>
   </energy>
  </scstep>
  <scstep>
   <time name="total">   11.02   11.11</time>
   <energy>
    <i name="e_fr_energy">   -299.36785646 </i>
    <i name="e_wo_entrp">   -299.36785646 </i>
    <i name="e_0_energy">   -299.36785646 </i>
   </energy>
  </scstep>
  <scstep>
   <time name="total">   11.01   11.10</time>
   <energy>
    <i name="e_fr_energy">   -299.37055691 </i>
    <i name="e_wo_entrp">   -299.37055691 </i>
    <i name="e_0_energy">   -299.37055691 </i>
   </energy>
  </scstep>
  <scstep>
   <time name="total">   11.11   11.20</time>
   <energy>
    <i name="e_fr_energy">   -299.37214222 </i>
    <i name="e_wo_entrp">   -299.37214222 </i>
    <i name="e_0_energy">   -299.37214222 </i>
   </energy>
  </scstep>
  <scstep>
   <time name="total">   11.03   11.11</time>
   <energy>
    <i name="e_fr_energy">   -299.37262921 </i>
    <i name="e_wo_entrp">   -299.37262921 </i>
    <i name="e_0_energy">   -299.37262921 </i>
   </energy>
  </scstep>
  <scstep>
   <time name="total">   10.97   11.05</time>
   <energy>
    <i name="e_fr_energy">   -299.37296233 </i>
    <i name="e_wo_entrp">   -299.37296233 </i>
    <i name="e_0_energy">   -299.37296233 </i>
   </energy>
  </scstep>
  <scstep>
   <time name="total">   11.11   11.20</time>
   <energy>
    <i name="e_fr_energy">   -299.37311295 </i>
    <i name="e_wo_entrp">   -299.37311295 </i>
    <i name="e_0_energy">   -299.37311295 </i>
   </energy>
  </scstep>
  <scstep>
   <time name="total">   10.89   10.97</time>
   <energy>
    <i name="e_fr_energy">   -299.37320758 </i>
    <i name="e_wo_entrp">   -299.37320758 </i>
    <i name="e_0_energy">   -299.37320758 </i>
   </energy>
  </scstep>
  <scstep>
   <time name="total">   10.90   10.98</time>
   <energy>
    <i name="e_fr_energy">   -299.37327274 </i>
    <i name="e_wo_entrp">   -299.37327274 </i>
    <i name="e_0_energy">   -299.37327274 </i>
   </energy>
  </scstep>
  <scstep>
   <time name="total">   10.97   11.96</time>
   <energy>
    <i name="e_fr_energy">   -299.37331985 </i>
    <i name="e_wo_entrp">   -299.37331985 </i>
    <i name="e_0_energy">   -299.37331985 </i>
   </energy>
  </scstep>
  <scstep>
   <time name="total">   10.45   10.55</time>
   <energy>
    <i name="e_fr_energy">   -299.37334633 </i>
    <i name="e_wo_entrp">   -299.37334633 </i>
    <i name="e_0_energy">   -299.37334633 </i>
   </energy>
  </scstep>
  <scstep>
   <time name="total">   10.75   10.83</time>
   <energy>
    <i name="e_fr_energy">   -299.37335754 </i>
    <i name="e_wo_entrp">   -299.37335754 </i>
    <i name="e_0_energy">   -299.37335754 </i>
   </energy>
  </scstep>
  <scstep>
   <time name="total">   10.91   10.99</time>
   <energy>
    <i name="e_fr_energy">   -299.37339088 </i>
    <i name="e_wo_entrp">   -299.37339088 </i>
    <i name="e_0_energy">   -299.37339088 </i>
   </energy>
  </scstep>
  <scstep>
   <time name="total">   10.84   10.92</time>
   <energy>
    <i name="e_fr_energy">   -299.37338804 </i>
    <i name="e_wo_entrp">   -299.37338804 </i>
    <i name="e_0_energy">   -299.37338804 </i>
   </energy>
  </scstep>
  <scstep>
   <time name="total">   10.71   10.79</time>
   <energy>
    <i name="e_fr_energy">   -299.37339779 </i>
    <i name="e_wo_entrp">   -299.37339779 </i>
    <i name="e_0_energy">   -299.37339779 </i>
   </energy>
  </scstep>
  <scstep>
   <time name="total">   10.63   10.71</time>
   <energy>
    <i name="e_fr_energy">   -299.37341084 </i>
    <i name="e_wo_entrp">   -299.37341084 </i>
    <i name="e_0_energy">   -299.37341084 </i>
   </energy>
  </scstep>
  <scstep>
   <time name="total">   10.97   11.05</time>
   <energy>
    <i name="e_fr_energy">   -299.37340103 </i>
    <i name="e_wo_entrp">   -299.37340103 </i>
    <i name="e_0_energy">   -299.37340103 </i>
   </energy>
  </scstep>
  <scstep>
   <time name="total">   10.76   10.85</time>
   <energy>
    <i name="e_fr_energy">   -299.37338520 </i>
    <i name="e_wo_entrp">   -299.37338520 </i>
    <i name="e_0_energy">   -299.37338520 </i>
   </energy>
  </scstep>
  <scstep>
   <time name="total">   10.73   10.81</time>
   <energy>
    <i name="e_fr_energy">   -299.37333730 </i>
    <i name="e_wo_entrp">   -299.37333730 </i>
    <i name="e_0_energy">   -299.37333730 </i>
   </energy>
  </scstep>
  <scstep>
   <time name="total">   10.80   10.88</time>
   <energy>
    <i name="e_fr_energy">   -299.37336600 </i>
    <i name="e_wo_entrp">   -299.37336600 </i>
    <i name="e_0_energy">   -299.37336600 </i>
   </energy>
  </scstep>
  <scstep>
   <time name="total">   10.65   10.73</time>
   <energy>
    <i name="e_fr_energy">   -299.37333402 </i>
    <i name="e_wo_entrp">   -299.37333402 </i>
    <i name="e_0_energy">   -299.37333402 </i>
   </energy>
  </scstep>
  <scstep>
   <time name="total">   11.44   13.07</time>
   <energy>
    <i name="e_fr_energy">     -0.14715242 </i>
    <i name="e_wo_entrp">     -0.14715242 </i>
    <i name="e_0_energy">     -0.14715242 </i>
   </energy>
  </scstep>
  <scstep>
   <time name="total">   14.88   14.99</time>
   <energy>
    <i name="e_fr_energy">     -0.51616446 </i>
    <i name="e_wo_entrp">     -0.51616446 </i>
    <i name="e_0_energy">     -0.51616446 </i>
   </energy>
  </scstep>
  <scstep>
   <time name="total">   16.14   16.25</time>
   <energy>
    <i name="e_fr_energy">     -0.57261325 </i>
    <i name="e_wo_entrp">     -0.57261325 </i>
    <i name="e_0_energy">     -0.57261325 </i>
   </energy>
  </scstep>
  <scstep>
   <time name="total">   16.77   16.89</time>
   <energy>
    <i name="e_fr_energy">     -0.58115634 </i>
    <i name="e_wo_entrp">     -0.58115634 </i>
    <i name="e_0_energy">     -0.58115634 </i>
   </energy>
  </scstep>
  <scstep>
   <time name="total">   16.88   17.00</time>
   <energy>
    <i name="e_fr_energy">     -0.58288103 </i>
    <i name="e_wo_entrp">     -0.58288103 </i>
    <i name="e_0_energy">     -0.58288103 </i>
   </energy>
  </scstep>
  <scstep>
   <time name="total">   16.93   17.04</time>
   <energy>
    <i name="e_fr_energy">     -0.58326258 </i>
    <i name="e_wo_entrp">     -0.58326258 </i>
    <i name="e_0_energy">     -0.58326258 </i>
   </energy>
  </scstep>
  <scstep>
   <time name="total">   17.07   17.19</time>
   <energy>
    <i name="e_fr_energy">     -0.58335219 </i>
    <i name="e_wo_entrp">     -0.58335219 </i>
    <i name="e_0_energy">     -0.58335219 </i>
   </energy>
  </scstep>
  <scstep>
   <time name="total">   16.96   17.07</time>
   <energy>
    <i name="e_fr_energy">     -0.58338042 </i>
    <i name="e_wo_entrp">     -0.58338042 </i>
    <i name="e_0_energy">     -0.58338042 </i>
   </energy>
  </scstep>
  <scstep>
   <time name="total">   17.15   17.27</time>
   <energy>
    <i name="e_fr_energy">     -0.58338756 </i>
    <i name="e_wo_entrp">     -0.58338756 </i>
    <i name="e_0_energy">     -0.58338756 </i>
   </energy>
  </scstep>
  <scstep>
   <time name="total">   16.96   17.07</time>
   <energy>
    <i name="e_fr_energy">     -0.58339050 </i>
    <i name="e_wo_entrp">     -0.58339050 </i>
    <i name="e_0_energy">     -0.58339050 </i>
   </energy>
  </scstep>
  <scstep>
   <time name="total">   17.08   17.20</time>
   <energy>
    <i name="e_fr_energy">     -0.58339203 </i>
    <i name="e_wo_entrp">     -0.58339203 </i>
    <i name="e_0_energy">     -0.58339203 </i>
   </energy>
  </scstep>
  <scstep>
   <time name="total">   16.78   16.89</time>
   <energy>
    <i name="e_fr_energy">     -0.58339251 </i>
    <i name="e_wo_entrp">     -0.58339251 </i>
    <i name="e_0_energy">     -0.58339251 </i>
   </energy>
  </scstep>
  <scstep>
   <time name="total">   17.01   17.13</time>
   <energy>
    <i name="e_fr_energy">     -0.58339283 </i>
    <i name="e_wo_entrp">     -0.58339283 </i>
    <i name="e_0_energy">     -0.58339283 </i>
   </energy>
  </scstep>
  <scstep>
   <time name="total">   18.00   18.15</time>
   <energy>
    <i name="e_fr_energy">     -0.58339310 </i>
    <i name="e_wo_entrp">     -0.58339310 </i>
    <i name="e_0_energy">     -0.58339310 </i>
   </energy>
  </scstep>
  <scstep>
   <time name="total">   16.63   17.20</time>
   <energy>
    <i name="e_fr_energy">     -0.58339313 </i>
    <i name="e_wo_entrp">     -0.58339313 </i>
    <i name="e_0_energy">     -0.58339313 </i>
   </energy>
  </scstep>
  <scstep>
   <time name="total">   11.43   11.50</time>
   <energy>
    <i name="e_fr_energy">     -0.15392133 </i>
    <i name="e_wo_entrp">     -0.15392133 </i>
    <i name="e_0_energy">     -0.15392133 </i>
   </energy>
  </scstep>
  <scstep>
   <time name="total">   14.78   14.88</time>
   <energy>
    <i name="e_fr_energy">     -0.56285351 </i>
    <i name="e_wo_entrp">     -0.56285351 </i>
    <i name="e_0_energy">     -0.56285351 </i>
   </energy>
  </scstep>
  <scstep>
   <time name="total">   15.99   16.10</time>
   <energy>
    <i name="e_fr_energy">     -0.62595895 </i>
    <i name="e_wo_entrp">     -0.62595895 </i>
    <i name="e_0_energy">     -0.62595895 </i>
   </energy>
  </scstep>
  <scstep>
   <time name="total">   16.51   16.62</time>
   <energy>
    <i name="e_fr_energy">     -0.63574816 </i>
    <i name="e_wo_entrp">     -0.63574816 </i>
    <i name="e_0_energy">     -0.63574816 </i>
   </energy>
  </scstep>
  <scstep>
   <time name="total">   17.04   17.19</time>
   <energy>
    <i name="e_fr_energy">     -0.63786868 </i>
    <i name="e_wo_entrp">     -0.63786868 </i>
    <i name="e_0_energy">     -0.63786868 </i>
   </energy>
  </scstep>
  <scstep>
   <time name="total">   16.96   17.09</time>
   <energy>
    <i name="e_fr_energy">     -0.63841302 </i>
    <i name="e_wo_entrp">     -0.63841302 </i>
    <i name="e_0_energy">     -0.63841302 </i>
   </energy>
  </scstep>
  <scstep>
   <time name="total">   16.93   18.05</time>
   <energy>
    <i name="e_fr_energy">     -0.63855423 </i>
    <i name="e_wo_entrp">     -0.63855423 </i>
    <i name="e_0_energy">     -0.63855423 </i>
   </energy>
  </scstep>
  <scstep>
   <time name="total">   16.93   17.06</time>
   <energy>
    <i name="e_fr_energy">     -0.63859554 </i>
    <i name="e_wo_entrp">     -0.63859554 </i>
    <i name="e_0_energy">     -0.63859554 </i>
   </energy>
  </scstep>
  <scstep>
   <time name="total">   17.17   17.30</time>
   <energy>
    <i name="e_fr_energy">     -0.63860568 </i>
    <i name="e_wo_entrp">     -0.63860568 </i>
    <i name="e_0_energy">     -0.63860568 </i>
   </energy>
  </scstep>
  <scstep>
   <time name="total">   17.00   17.12</time>
   <energy>
    <i name="e_fr_energy">     -0.63861043 </i>
    <i name="e_wo_entrp">     -0.63861043 </i>
    <i name="e_0_energy">     -0.63861043 </i>
   </energy>
  </scstep>
  <scstep>
   <time name="total">   16.89   17.02</time>
   <energy>
    <i name="e_fr_energy">     -0.63861129 </i>
    <i name="e_wo_entrp">     -0.63861129 </i>
    <i name="e_0_energy">     -0.63861129 </i>
   </energy>
  </scstep>
  <scstep>
   <time name="total">   16.87   17.01</time>
   <energy>
    <i name="e_fr_energy">     -0.63861138 </i>
    <i name="e_wo_entrp">     -0.63861138 </i>
    <i name="e_0_energy">     -0.63861138 </i>
   </energy>
  </scstep>
  <scstep>
   <time name="total">   11.53   11.62</time>
   <energy>
    <i name="e_fr_energy">     -0.13118503 </i>
    <i name="e_wo_entrp">     -0.13118503 </i>
    <i name="e_0_energy">     -0.13118503 </i>
   </energy>
  </scstep>
  <scstep>
   <time name="total">   14.54   14.65</time>
   <energy>
    <i name="e_fr_energy">     -0.35977746 </i>
    <i name="e_wo_entrp">     -0.35977746 </i>
    <i name="e_0_energy">     -0.35977746 </i>
   </energy>
  </scstep>
  <scstep>
   <time name="total">   15.80   15.92</time>
   <energy>
    <i name="e_fr_energy">     -0.39627292 </i>
    <i name="e_wo_entrp">     -0.39627292 </i>
    <i name="e_0_energy">     -0.39627292 </i>
   </energy>
  </scstep>
  <scstep>
   <time name="total">   16.57   16.70</time>
   <energy>
    <i name="e_fr_energy">     -0.40174833 </i>
    <i name="e_wo_entrp">     -0.40174833 </i>
    <i name="e_0_energy">     -0.40174833 </i>
   </energy>
  </scstep>
  <scstep>
   <time name="total">   16.29   16.41</time>
   <energy>
    <i name="e_fr_energy">     -0.40301954 </i>
    <i name="e_wo_entrp">     -0.40301954 </i>
    <i name="e_0_energy">     -0.40301954 </i>
   </energy>
  </scstep>
  <scstep>
   <time name="total">   16.64   16.77</time>
   <energy>
    <i name="e_fr_energy">     -0.40333238 </i>
    <i name="e_wo_entrp">     -0.40333238 </i>
    <i name="e_0_energy">     -0.40333238 </i>
   </energy>
  </scstep>
  <scstep>
   <time name="total">   16.51   16.63</time>
   <energy>
    <i name="e_fr_energy">     -0.40341408 </i>
    <i name="e_wo_entrp">     -0.40341408 </i>
    <i name="e_0_energy">     -0.40341408 </i>
   </energy>
  </scstep>
  <scstep>
   <time name="total">   16.84   16.96</time>
   <energy>
    <i name="e_fr_energy">     -0.40342827 </i>
    <i name="e_wo_entrp">     -0.40342827 </i>
    <i name="e_0_energy">     -0.40342827 </i>
   </energy>
  </scstep>
  <scstep>
   <time name="total">   16.63   16.76</time>
   <energy>
    <i name="e_fr_energy">     -0.40343422 </i>
    <i name="e_wo_entrp">     -0.40343422 </i>
    <i name="e_0_energy">     -0.40343422 </i>
   </energy>
  </scstep>
  <scstep>
   <time name="total">   16.82   16.95</time>
   <energy>
    <i name="e_fr_energy">     -0.40343543 </i>
    <i name="e_wo_entrp">     -0.40343543 </i>
    <i name="e_0_energy">     -0.40343543 </i>
   </energy>
  </scstep>
  <scstep>
   <time name="total">   16.72   16.85</time>
   <energy>
    <i name="e_fr_energy">     -0.40343586 </i>
    <i name="e_wo_entrp">     -0.40343586 </i>
    <i name="e_0_energy">     -0.40343586 </i>
   </energy>
  </scstep>
  <scstep>
   <time name="total">   16.76   16.89</time>
   <energy>
    <i name="e_fr_energy">     -0.40343601 </i>
    <i name="e_wo_entrp">     -0.40343601 </i>
    <i name="e_0_energy">     -0.40343601 </i>
   </energy>
  </scstep>
  <scstep>
   <time name="total">   16.49   16.62</time>
   <energy>
    <i name="e_fr_energy">     -0.40343604 </i>
    <i name="e_wo_entrp">     -0.40343604 </i>
    <i name="e_0_energy">     -0.40343604 </i>
   </energy>
  </scstep>
  <varray name="epsilon_rpa" >
   <v>       6.62421272      -0.00000000      -0.00000000 </v>
   <v>      -0.00000000       6.62421269       0.00000000 </v>
   <v>      -0.00000000       0.00000000       4.71358424 </v>
  </varray>
  <kpoints>
   <generation param="Gamma">
    <v type="int" name="divisions">      10       10       10 </v>
    <v name="usershift">      0.00000000       0.00000000       0.00000000 </v>
    <v name="genvec1">      0.10000000      -0.00000000       0.00000000 </v>
    <v name="genvec2">     -0.00000000       0.10000000       0.00000000 </v>
    <v name="genvec3">      0.00000000       0.00000000       0.10000000 </v>
    <v name="shift">      0.00000000       0.00000000       0.00000000 </v>
   </generation>
   <varray name="kpointlist" >
    <v>       0.00000000       0.00000000       0.00000000 </v>
    <v>       0.10000000       0.00000000       0.00000000 </v>
    <v>       0.20000000       0.00000000       0.00000000 </v>
    <v>       0.30000000       0.00000000       0.00000000 </v>
    <v>       0.40000000       0.00000000       0.00000000 </v>
    <v>       0.50000000       0.00000000       0.00000000 </v>
    <v>       0.10000000       0.10000000       0.00000000 </v>
    <v>       0.20000000       0.10000000       0.00000000 </v>
    <v>       0.30000000       0.10000000       0.00000000 </v>
    <v>       0.40000000       0.10000000       0.00000000 </v>
    <v>       0.50000000       0.10000000       0.00000000 </v>
    <v>      -0.40000000       0.10000000      -0.00000000 </v>
    <v>      -0.30000000       0.10000000      -0.00000000 </v>
    <v>      -0.20000000       0.10000000      -0.00000000 </v>
    <v>      -0.10000000       0.10000000       0.00000000 </v>
    <v>       0.20000000       0.20000000       0.00000000 </v>
    <v>       0.30000000       0.20000000       0.00000000 </v>
    <v>       0.40000000       0.20000000       0.00000000 </v>
    <v>       0.50000000       0.20000000      -0.00000000 </v>
    <v>      -0.40000000       0.20000000      -0.00000000 </v>
    <v>      -0.30000000       0.20000000      -0.00000000 </v>
    <v>      -0.20000000       0.20000000       0.00000000 </v>
    <v>       0.30000000       0.30000000       0.00000000 </v>
    <v>       0.40000000       0.30000000       0.00000000 </v>
    <v>       0.50000000       0.30000000       0.00000000 </v>
    <v>      -0.40000000       0.30000000       0.00000000 </v>
    <v>      -0.30000000       0.30000000       0.00000000 </v>
    <v>       0.40000000       0.40000000       0.00000000 </v>
    <v>       0.50000000       0.40000000      -0.00000000 </v>
    <v>      -0.40000000       0.40000000       0.00000000 </v>
    <v>       0.50000000       0.50000000       0.00000000 </v>
    <v>      -0.00000000      -0.00000000       0.10000000 </v>
    <v>       0.10000000      -0.00000000       0.10000000 </v>
    <v>       0.20000000       0.00000000       0.10000000 </v>
    <v>       0.30000000      -0.00000000       0.10000000 </v>
    <v>       0.40000000      -0.00000000       0.10000000 </v>
    <v>       0.50000000       0.00000000       0.10000000 </v>
    <v>      -0.40000000      -0.00000000       0.10000000 </v>
    <v>      -0.30000000       0.00000000       0.10000000 </v>
    <v>      -0.20000000      -0.00000000       0.10000000 </v>
    <v>      -0.10000000      -0.00000000       0.10000000 </v>
    <v>       0.10000000       0.10000000       0.10000000 </v>
    <v>       0.20000000       0.10000000       0.10000000 </v>
    <v>       0.30000000       0.10000000       0.10000000 </v>
    <v>       0.40000000       0.10000000       0.10000000 </v>
    <v>       0.50000000       0.10000000       0.10000000 </v>
    <v>      -0.40000000       0.10000000       0.10000000 </v>
    <v>      -0.30000000       0.10000000       0.10000000 </v>
    <v>      -0.20000000       0.10000000       0.10000000 </v>
    <v>      -0.10000000       0.10000000       0.10000000 </v>
    <v>       0.20000000       0.20000000       0.10000000 </v>
    <v>       0.30000000       0.20000000       0.10000000 </v>
    <v>       0.40000000       0.20000000       0.10000000 </v>
    <v>       0.50000000       0.20000000       0.10000000 </v>
    <v>      -0.40000000       0.20000000       0.10000000 </v>
    <v>      -0.30000000       0.20000000       0.10000000 </v>
    <v>      -0.20000000       0.20000000       0.10000000 </v>
    <v>      -0.10000000       0.20000000       0.10000000 </v>
    <v>       0.30000000       0.30000000       0.10000000 </v>
    <v>       0.40000000       0.30000000       0.10000000 </v>
    <v>       0.50000000       0.30000000       0.10000000 </v>
    <v>      -0.40000000       0.30000000       0.10000000 </v>
    <v>      -0.30000000       0.30000000       0.10000000 </v>
    <v>      -0.20000000       0.30000000       0.10000000 </v>
    <v>      -0.10000000       0.30000000       0.10000000 </v>
    <v>       0.40000000       0.40000000       0.10000000 </v>
    <v>       0.50000000       0.40000000       0.10000000 </v>
    <v>      -0.40000000       0.40000000       0.10000000 </v>
    <v>      -0.30000000       0.40000000       0.10000000 </v>
    <v>      -0.20000000       0.40000000       0.10000000 </v>
    <v>      -0.10000000       0.40000000       0.10000000 </v>
    <v>       0.50000000       0.50000000       0.10000000 </v>
    <v>      -0.40000000       0.50000000       0.10000000 </v>
    <v>      -0.30000000       0.50000000       0.10000000 </v>
    <v>      -0.20000000       0.50000000       0.10000000 </v>
    <v>      -0.10000000       0.50000000       0.10000000 </v>
    <v>      -0.40000000      -0.40000000       0.10000000 </v>
    <v>      -0.30000000      -0.40000000       0.10000000 </v>
    <v>      -0.20000000      -0.40000000       0.10000000 </v>
    <v>      -0.10000000      -0.40000000       0.10000000 </v>
    <v>      -0.30000000      -0.30000000       0.10000000 </v>
    <v>      -0.20000000      -0.30000000       0.10000000 </v>
    <v>      -0.10000000      -0.30000000       0.10000000 </v>
    <v>      -0.20000000      -0.20000000       0.10000000 </v>
    <v>      -0.10000000      -0.20000000       0.10000000 </v>
    <v>      -0.10000000      -0.10000000       0.10000000 </v>
    <v>      -0.00000000      -0.00000000       0.20000000 </v>
    <v>       0.10000000      -0.00000000       0.20000000 </v>
    <v>       0.20000000      -0.00000000       0.20000000 </v>
    <v>       0.30000000      -0.00000000       0.20000000 </v>
    <v>       0.40000000       0.00000000       0.20000000 </v>
    <v>       0.50000000       0.00000000       0.20000000 </v>
    <v>      -0.40000000      -0.00000000       0.20000000 </v>
    <v>      -0.30000000       0.00000000       0.20000000 </v>
    <v>      -0.20000000      -0.00000000       0.20000000 </v>
    <v>      -0.10000000      -0.00000000       0.20000000 </v>
    <v>       0.10000000       0.10000000       0.20000000 </v>
    <v>       0.20000000       0.10000000       0.20000000 </v>
    <v>       0.30000000       0.10000000       0.20000000 </v>
    <v>       0.40000000       0.10000000       0.20000000 </v>
    <v>       0.50000000       0.10000000       0.20000000 </v>
    <v>      -0.40000000       0.10000000       0.20000000 </v>
    <v>      -0.30000000       0.10000000       0.20000000 </v>
    <v>      -0.20000000       0.10000000       0.20000000 </v>
    <v>      -0.10000000       0.10000000       0.20000000 </v>
    <v>       0.20000000       0.20000000       0.20000000 </v>
    <v>       0.30000000       0.20000000       0.20000000 </v>
    <v>       0.40000000       0.20000000       0.20000000 </v>
    <v>       0.50000000       0.20000000       0.20000000 </v>
    <v>      -0.40000000       0.20000000       0.20000000 </v>
    <v>      -0.30000000       0.20000000       0.20000000 </v>
    <v>      -0.20000000       0.20000000       0.20000000 </v>
    <v>      -0.10000000       0.20000000       0.20000000 </v>
    <v>       0.30000000       0.30000000       0.20000000 </v>
    <v>       0.40000000       0.30000000       0.20000000 </v>
    <v>       0.50000000       0.30000000       0.20000000 </v>
    <v>      -0.40000000       0.30000000       0.20000000 </v>
    <v>      -0.30000000       0.30000000       0.20000000 </v>
    <v>      -0.20000000       0.30000000       0.20000000 </v>
    <v>      -0.10000000       0.30000000       0.20000000 </v>
    <v>       0.40000000       0.40000000       0.20000000 </v>
    <v>       0.50000000       0.40000000       0.20000000 </v>
    <v>      -0.40000000       0.40000000       0.20000000 </v>
    <v>      -0.30000000       0.40000000       0.20000000 </v>
    <v>      -0.20000000       0.40000000       0.20000000 </v>
    <v>      -0.10000000       0.40000000       0.20000000 </v>
    <v>       0.50000000       0.50000000       0.20000000 </v>
    <v>      -0.40000000       0.50000000       0.20000000 </v>
    <v>      -0.30000000       0.50000000       0.20000000 </v>
    <v>      -0.20000000       0.50000000       0.20000000 </v>
    <v>      -0.10000000       0.50000000       0.20000000 </v>
    <v>      -0.40000000      -0.40000000       0.20000000 </v>
    <v>      -0.30000000      -0.40000000       0.20000000 </v>
    <v>      -0.20000000      -0.40000000       0.20000000 </v>
    <v>      -0.10000000      -0.40000000       0.20000000 </v>
    <v>      -0.30000000      -0.30000000       0.20000000 </v>
    <v>      -0.20000000      -0.30000000       0.20000000 </v>
    <v>      -0.10000000      -0.30000000       0.20000000 </v>
    <v>      -0.20000000      -0.20000000       0.20000000 </v>
    <v>      -0.10000000      -0.20000000       0.20000000 </v>
    <v>      -0.10000000      -0.10000000       0.20000000 </v>
    <v>       0.00000000      -0.00000000       0.30000000 </v>
    <v>       0.10000000      -0.00000000       0.30000000 </v>
    <v>       0.20000000      -0.00000000       0.30000000 </v>
    <v>       0.30000000       0.00000000       0.30000000 </v>
    <v>       0.40000000       0.00000000       0.30000000 </v>
    <v>       0.50000000      -0.00000000       0.30000000 </v>
    <v>      -0.40000000      -0.00000000       0.30000000 </v>
    <v>      -0.30000000      -0.00000000       0.30000000 </v>
    <v>      -0.20000000      -0.00000000       0.30000000 </v>
    <v>      -0.10000000      -0.00000000       0.30000000 </v>
    <v>       0.10000000       0.10000000       0.30000000 </v>
    <v>       0.20000000       0.10000000       0.30000000 </v>
    <v>       0.30000000       0.10000000       0.30000000 </v>
    <v>       0.40000000       0.10000000       0.30000000 </v>
    <v>       0.50000000       0.10000000       0.30000000 </v>
    <v>      -0.40000000       0.10000000       0.30000000 </v>
    <v>      -0.30000000       0.10000000       0.30000000 </v>
    <v>      -0.20000000       0.10000000       0.30000000 </v>
    <v>      -0.10000000       0.10000000       0.30000000 </v>
    <v>       0.20000000       0.20000000       0.30000000 </v>
    <v>       0.30000000       0.20000000       0.30000000 </v>
    <v>       0.40000000       0.20000000       0.30000000 </v>
    <v>       0.50000000       0.20000000       0.30000000 </v>
    <v>      -0.40000000       0.20000000       0.30000000 </v>
    <v>      -0.30000000       0.20000000       0.30000000 </v>
    <v>      -0.20000000       0.20000000       0.30000000 </v>
    <v>      -0.10000000       0.20000000       0.30000000 </v>
    <v>       0.30000000       0.30000000       0.30000000 </v>
    <v>       0.40000000       0.30000000       0.30000000 </v>
    <v>       0.50000000       0.30000000       0.30000000 </v>
    <v>      -0.40000000       0.30000000       0.30000000 </v>
    <v>      -0.30000000       0.30000000       0.30000000 </v>
    <v>      -0.20000000       0.30000000       0.30000000 </v>
    <v>      -0.10000000       0.30000000       0.30000000 </v>
    <v>       0.40000000       0.40000000       0.30000000 </v>
    <v>       0.50000000       0.40000000       0.30000000 </v>
    <v>      -0.40000000       0.40000000       0.30000000 </v>
    <v>      -0.30000000       0.40000000       0.30000000 </v>
    <v>      -0.20000000       0.40000000       0.30000000 </v>
    <v>      -0.10000000       0.40000000       0.30000000 </v>
    <v>       0.50000000       0.50000000       0.30000000 </v>
    <v>      -0.40000000       0.50000000       0.30000000 </v>
    <v>      -0.30000000       0.50000000       0.30000000 </v>
    <v>      -0.20000000       0.50000000       0.30000000 </v>
    <v>      -0.10000000       0.50000000       0.30000000 </v>
    <v>      -0.40000000      -0.40000000       0.30000000 </v>
    <v>      -0.30000000      -0.40000000       0.30000000 </v>
    <v>      -0.20000000      -0.40000000       0.30000000 </v>
    <v>      -0.10000000      -0.40000000       0.30000000 </v>
    <v>      -0.30000000      -0.30000000       0.30000000 </v>
    <v>      -0.20000000      -0.30000000       0.30000000 </v>
    <v>      -0.10000000      -0.30000000       0.30000000 </v>
    <v>      -0.20000000      -0.20000000       0.30000000 </v>
    <v>      -0.10000000      -0.20000000       0.30000000 </v>
    <v>      -0.10000000      -0.10000000       0.30000000 </v>
    <v>      -0.00000000      -0.00000000       0.40000000 </v>
    <v>       0.10000000      -0.00000000       0.40000000 </v>
    <v>       0.20000000       0.00000000       0.40000000 </v>
    <v>       0.30000000      -0.00000000       0.40000000 </v>
    <v>       0.40000000      -0.00000000       0.40000000 </v>
    <v>       0.50000000      -0.00000000       0.40000000 </v>
    <v>      -0.40000000      -0.00000000       0.40000000 </v>
    <v>      -0.30000000      -0.00000000       0.40000000 </v>
    <v>      -0.20000000      -0.00000000       0.40000000 </v>
    <v>      -0.10000000      -0.00000000       0.40000000 </v>
    <v>       0.10000000       0.10000000       0.40000000 </v>
    <v>       0.20000000       0.10000000       0.40000000 </v>
    <v>       0.30000000       0.10000000       0.40000000 </v>
    <v>       0.40000000       0.10000000       0.40000000 </v>
[...]
       <r>  -13.2318    1.0000 </r>
       <r>   -1.2469    1.0000 </r>
       <r>    0.0037    1.0000 </r>
       <r>    1.8563    1.0000 </r>
       <r>    2.1546    1.0000 </r>
       <r>    2.1793    1.0000 </r>
       <r>    2.5320    1.0000 </r>
       <r>    2.6360    1.0000 </r>
       <r>    3.9893    1.0000 </r>
       <r>    4.1021    1.0000 </r>
       <r>    4.9278    1.0000 </r>
       <r>    5.0344    1.0000 </r>
       <r>    9.3387    0.0000 </r>
       <r>   10.9700    0.0000 </r>
       <r>   13.5266    0.0000 </r>
       <r>   17.9054    0.0000 </r>
       <r>   18.8629    0.0000 </r>
       <r>   19.9604    0.0000 </r>
       <r>   19.9721    0.0000 </r>
       <r>   21.1847    0.0000 </r>
       <r>   22.3715    0.0000 </r>
       <r>   23.2253    0.0000 </r>
       <r>   24.1978    0.0000 </r>
       <r>   25.6158    0.0000 </r>
       <r>   27.4463    0.0000 </r>
       <r>   28.2709    0.0000 </r>
       <r>   28.9230    0.0000 </r>
       <r>   30.0660    0.0000 </r>
       <r>   30.2321    0.0000 </r>
       <r>   31.2887    0.0000 </r>
       <r>   32.2240    0.0000 </r>
      </set>
      <set comment="kpoint 115">
       <r> -105.4661    1.0000 </r>
       <r>  -63.1604    1.0000 </r>
       <r>  -62.9559    1.0000 </r>
       <r>  -62.9519    1.0000 </r>
       <r>  -14.8048    1.0000 </r>
       <r>  -13.1376    1.0000 </r>
       <r>   -1.0766    1.0000 </r>
       <r>   -0.2769    1.0000 </r>
       <r>    1.3646    1.0000 </r>
       <r>    1.6029    1.0000 </r>
       <r>    2.1920    1.0000 </r>
       <r>    2.4046    1.0000 </r>
       <r>    2.7841    1.0000 </r>
       <r>    3.9143    1.0000 </r>
       <r>    4.2574    1.0000 </r>
       <r>    4.7999    1.0000 </r>
       <r>    4.9825    1.0000 </r>
       <r>    9.1953    0.0000 </r>
       <r>   11.8544    0.0000 </r>
       <r>   14.3435    0.0000 </r>
       <r>   17.2596    0.0000 </r>
       <r>   18.3316    0.0000 </r>
       <r>   18.9274    0.0000 </r>
       <r>   20.4703    0.0000 </r>
       <r>   20.5796    0.0000 </r>
       <r>   21.6794    0.0000 </r>
       <r>   22.6556    0.0000 </r>
       <r>   23.4001    0.0000 </r>
       <r>   26.5604    0.0000 </r>
       <r>   26.7989    0.0000 </r>
       <r>   28.7180    0.0000 </r>
       <r>   29.9540    0.0000 </r>
       <r>   30.7111    0.0000 </r>
       <r>   31.7491    0.0000 </r>
       <r>   32.3105    0.0000 </r>
       <r>   32.7259    0.0000 </r>
      </set>
      <set comment="kpoint 116">
       <r> -105.4666    1.0000 </r>
       <r>  -63.1609    1.0000 </r>
       <r>  -62.9502    1.0000 </r>
       <r>  -62.9502    1.0000 </r>
       <r>  -15.1623    1.0000 </r>
       <r>  -13.2886    1.0000 </r>
       <r>   -1.3037    1.0000 </r>
       <r>    0.0614    1.0000 </r>
       <r>    2.0812    1.0000 </r>
       <r>    2.3117    1.0000 </r>
       <r>    2.3117    1.0000 </r>
       <r>    2.6693    1.0000 </r>
       <r>    2.6693    1.0000 </r>
       <r>    4.0302    1.0000 </r>
       <r>    4.0302    1.0000 </r>
       <r>    5.0451    1.0000 </r>
       <r>    5.0451    1.0000 </r>
       <r>    9.4435    0.0000 </r>
       <r>   10.3884    0.0000 </r>
       <r>   13.0540    0.0000 </r>
       <r>   18.1101    0.0000 </r>
       <r>   19.7111    0.0000 </r>
       <r>   19.7111    0.0000 </r>
       <r>   20.9155    0.0000 </r>
       <r>   20.9155    0.0000 </r>
       <r>   21.5897    0.0000 </r>
       <r>   25.2941    0.0000 </r>
       <r>   25.2941    0.0000 </r>
       <r>   25.9471    0.0000 </r>
       <r>   26.2998    0.0000 </r>
       <r>   28.2737    0.0000 </r>
       <r>   28.2737    0.0000 </r>
       <r>   29.0460    0.0000 </r>
       <r>   29.0460    0.0000 </r>
       <r>   30.2119    0.0000 </r>
       <r>   31.5882    0.0000 </r>
      </set>
     </set>
    </set>
   </array>
  </eigenvalues>
  <separator name="orbital magnetization" >
   <v name="MAGDIPOLOUT">      0.00000000      0.00000000      0.00000000</v>
  </separator>
  <dos>
   <i name="efermi">      6.85111012 </i>
   <total>
    <array>
     <dimension dim="1">gridpoints</dimension>
     <dimension dim="2">spin</dimension>
     <field>energy</field>
     <field>total</field>
     <field>integrated</field>
     <set>
      <set comment="spin 1">
       <r>  -112.5415     0.0000     0.0000 </r>
       <r>  -112.0226     0.0000     0.0000 </r>
       <r>  -111.5038     0.0000     0.0000 </r>
       <r>  -110.9850     0.0000     0.0000 </r>
       <r>  -110.4662     0.0000     0.0000 </r>
       <r>  -109.9474     0.0000     0.0000 </r>
       <r>  -109.4286     0.0000     0.0000 </r>
       <r>  -108.9097     0.0000     0.0000 </r>
       <r>  -108.3909     0.0000     0.0000 </r>
       <r>  -107.8721     0.0000     0.0000 </r>
       <r>  -107.3533     0.0000     0.0000 </r>
       <r>  -106.8345     0.0000     0.0000 </r>
       <r>  -106.3157     0.0000     0.0000 </r>
       <r>  -105.7969     0.0366     0.0190 </r>
       <r>  -105.2780     3.4599     1.8140 </r>
       <r>  -104.7592     0.3584     2.0000 </r>
       <r>  -104.2404     0.0000     2.0000 </r>
       <r>  -103.7216     0.0000     2.0000 </r>
       <r>  -103.2028     0.0000     2.0000 </r>
       <r>  -102.6840     0.0000     2.0000 </r>
       <r>  -102.1651     0.0000     2.0000 </r>
       <r>  -101.6463     0.0000     2.0000 </r>
       <r>  -101.1275     0.0000     2.0000 </r>
       <r>  -100.6087     0.0000     2.0000 </r>
       <r>  -100.0899     0.0000     2.0000 </r>
       <r>   -99.5711     0.0000     2.0000 </r>
       <r>   -99.0522     0.0000     2.0000 </r>
       <r>   -98.5334     0.0000     2.0000 </r>
       <r>   -98.0146     0.0000     2.0000 </r>
       <r>   -97.4958     0.0000     2.0000 </r>
       <r>   -96.9770     0.0000     2.0000 </r>
       <r>   -96.4582     0.0000     2.0000 </r>
       <r>   -95.9393     0.0000     2.0000 </r>
       <r>   -95.4205     0.0000     2.0000 </r>
       <r>   -94.9017     0.0000     2.0000 </r>
       <r>   -94.3829     0.0000     2.0000 </r>
       <r>   -93.8641     0.0000     2.0000 </r>
       <r>   -93.3453     0.0000     2.0000 </r>
       <r>   -92.8264     0.0000     2.0000 </r>
       <r>   -92.3076     0.0000     2.0000 </r>
       <r>   -91.7888     0.0000     2.0000 </r>
       <r>   -91.2700     0.0000     2.0000 </r>
       <r>   -90.7512     0.0000     2.0000 </r>
       <r>   -90.2324     0.0000     2.0000 </r>
       <r>   -89.7135     0.0000     2.0000 </r>
       <r>   -89.1947     0.0000     2.0000 </r>
       <r>   -88.6759     0.0000     2.0000 </r>
       <r>   -88.1571     0.0000     2.0000 </r>
       <r>   -87.6383     0.0000     2.0000 </r>
       <r>   -87.1195     0.0000     2.0000 </r>
       <r>   -86.6007     0.0000     2.0000 </r>
       <r>   -86.0818     0.0000     2.0000 </r>
       <r>   -85.5630     0.0000     2.0000 </r>
       <r>   -85.0442     0.0000     2.0000 </r>
       <r>   -84.5254     0.0000     2.0000 </r>
       <r>   -84.0066     0.0000     2.0000 </r>
       <r>   -83.4878     0.0000     2.0000 </r>
       <r>   -82.9689     0.0000     2.0000 </r>
       <r>   -82.4501     0.0000     2.0000 </r>
       <r>   -81.9313     0.0000     2.0000 </r>
       <r>   -81.4125     0.0000     2.0000 </r>
       <r>   -80.8937     0.0000     2.0000 </r>
       <r>   -80.3749     0.0000     2.0000 </r>
       <r>   -79.8560     0.0000     2.0000 </r>
       <r>   -79.3372     0.0000     2.0000 </r>
       <r>   -78.8184     0.0000     2.0000 </r>
       <r>   -78.2996     0.0000     2.0000 </r>
       <r>   -77.7808     0.0000     2.0000 </r>
       <r>   -77.2620     0.0000     2.0000 </r>
       <r>   -76.7431     0.0000     2.0000 </r>
       <r>   -76.2243     0.0000     2.0000 </r>
       <r>   -75.7055     0.0000     2.0000 </r>
       <r>   -75.1867     0.0000     2.0000 </r>
       <r>   -74.6679     0.0000     2.0000 </r>
       <r>   -74.1491     0.0000     2.0000 </r>
       <r>   -73.6302     0.0000     2.0000 </r>
       <r>   -73.1114     0.0000     2.0000 </r>
       <r>   -72.5926     0.0000     2.0000 </r>
       <r>   -72.0738     0.0000     2.0000 </r>
       <r>   -71.5550     0.0000     2.0000 </r>
       <r>   -71.0362     0.0000     2.0000 </r>
       <r>   -70.5174     0.0000     2.0000 </r>
       <r>   -69.9985     0.0000     2.0000 </r>
       <r>   -69.4797     0.0000     2.0000 </r>
       <r>   -68.9609     0.0000     2.0000 </r>
       <r>   -68.4421     0.0000     2.0000 </r>
       <r>   -67.9233     0.0000     2.0000 </r>
       <r>   -67.4045     0.0000     2.0000 </r>
       <r>   -66.8856     0.0000     2.0000 </r>
       <r>   -66.3668     0.0000     2.0000 </r>
       <r>   -65.8480     0.0000     2.0000 </r>
       <r>   -65.3292     0.0000     2.0000 </r>
       <r>   -64.8104     0.0000     2.0000 </r>
       <r>   -64.2916     0.0000     2.0000 </r>
       <r>   -63.7727     0.0000     2.0000 </r>
       <r>   -63.2539     1.1175     2.5798 </r>
       <r>   -62.7351    10.0126     7.7745 </r>
       <r>   -62.2163     0.4346     8.0000 </r>
       <r>   -61.6975     0.0000     8.0000 </r>
       <r>   -61.1787     0.0000     8.0000 </r>
       <r>   -60.6598     0.0000     8.0000 </r>
       <r>   -60.1410     0.0000     8.0000 </r>
       <r>   -59.6222     0.0000     8.0000 </r>
       <r>   -59.1034     0.0000     8.0000 </r>
       <r>   -58.5846     0.0000     8.0000 </r>
       <r>   -58.0658     0.0000     8.0000 </r>
       <r>   -57.5469     0.0000     8.0000 </r>
       <r>   -57.0281     0.0000     8.0000 </r>
       <r>   -56.5093     0.0000     8.0000 </r>
       <r>   -55.9905     0.0000     8.0000 </r>
       <r>   -55.4717     0.0000     8.0000 </r>
       <r>   -54.9529     0.0000     8.0000 </r>
       <r>   -54.4340     0.0000     8.0000 </r>
       <r>   -53.9152     0.0000     8.0000 </r>
       <r>   -53.3964     0.0000     8.0000 </r>
       <r>   -52.8776     0.0000     8.0000 </r>
       <r>   -52.3588     0.0000     8.0000 </r>
       <r>   -51.8400     0.0000     8.0000 </r>
       <r>   -51.3212     0.0000     8.0000 </r>
       <r>   -50.8023     0.0000     8.0000 </r>
       <r>   -50.2835     0.0000     8.0000 </r>
       <r>   -49.7647     0.0000     8.0000 </r>
       <r>   -49.2459     0.0000     8.0000 </r>
       <r>   -48.7271     0.0000     8.0000 </r>
       <r>   -48.2083     0.0000     8.0000 </r>
       <r>   -47.6894     0.0000     8.0000 </r>
       <r>   -47.1706     0.0000     8.0000 </r>
       <r>   -46.6518     0.0000     8.0000 </r>
       <r>   -46.1330     0.0000     8.0000 </r>
       <r>   -45.6142     0.0000     8.0000 </r>
       <r>   -45.0954     0.0000     8.0000 </r>
       <r>   -44.5765     0.0000     8.0000 </r>
       <r>   -44.0577     0.0000     8.0000 </r>
       <r>   -43.5389     0.0000     8.0000 </r>
       <r>   -43.0201     0.0000     8.0000 </r>
       <r>   -42.5013     0.0000     8.0000 </r>
       <r>   -41.9825     0.0000     8.0000 </r>
       <r>   -41.4636     0.0000     8.0000 </r>
       <r>   -40.9448     0.0000     8.0000 </r>
       <r>   -40.4260     0.0000     8.0000 </r>
       <r>   -39.9072     0.0000     8.0000 </r>
       <r>   -39.3884     0.0000     8.0000 </r>
       <r>   -38.8696     0.0000     8.0000 </r>
       <r>   -38.3507     0.0000     8.0000 </r>
       <r>   -37.8319     0.0000     8.0000 </r>
       <r>   -37.3131     0.0000     8.0000 </r>
       <r>   -36.7943     0.0000     8.0000 </r>
       <r>   -36.2755     0.0000     8.0000 </r>
       <r>   -35.7567     0.0000     8.0000 </r>
       <r>   -35.2379     0.0000     8.0000 </r>
       <r>   -34.7190     0.0000     8.0000 </r>
       <r>   -34.2002     0.0000     8.0000 </r>
       <r>   -33.6814     0.0000     8.0000 </r>
       <r>   -33.1626     0.0000     8.0000 </r>
       <r>   -32.6438     0.0000     8.0000 </r>
       <r>   -32.1250     0.0000     8.0000 </r>
       <r>   -31.6061     0.0000     8.0000 </r>
       <r>   -31.0873     0.0000     8.0000 </r>
       <r>   -30.5685     0.0000     8.0000 </r>
       <r>   -30.0497     0.0000     8.0000 </r>
       <r>   -29.5309     0.0000     8.0000 </r>
       <r>   -29.0121     0.0000     8.0000 </r>
       <r>   -28.4932     0.0000     8.0000 </r>
       <r>   -27.9744     0.0000     8.0000 </r>
       <r>   -27.4556     0.0000     8.0000 </r>
       <r>   -26.9368     0.0000     8.0000 </r>
       <r>   -26.4180     0.0000     8.0000 </r>
       <r>   -25.8992     0.0000     8.0000 </r>
       <r>   -25.3803     0.0000     8.0000 </r>
       <r>   -24.8615     0.0000     8.0000 </r>
       <r>   -24.3427     0.0000     8.0000 </r>
       <r>   -23.8239     0.0000     8.0000 </r>
       <r>   -23.3051     0.0000     8.0000 </r>
       <r>   -22.7863     0.0000     8.0000 </r>
       <r>   -22.2674     0.0000     8.0000 </r>
       <r>   -21.7486     0.0000     8.0000 </r>
       <r>   -21.2298     0.0000     8.0000 </r>
       <r>   -20.7110     0.0000     8.0000 </r>
       <r>   -20.1922     0.0000     8.0000 </r>
       <r>   -19.6734     0.0000     8.0000 </r>
       <r>   -19.1546     0.0000     8.0000 </r>
       <r>   -18.6357     0.0000     8.0000 </r>
       <r>   -18.1169     0.0000     8.0000 </r>
       <r>   -17.5981     0.0000     8.0000 </r>
       <r>   -17.0793     0.0000     8.0000 </r>
       <r>   -16.5605     0.0000     8.0000 </r>
       <r>   -16.0417     0.0000     8.0000 </r>
       <r>   -15.5228     0.0011     8.0006 </r>
       <r>   -15.0040     0.2504     8.1305 </r>
       <r>   -14.4852     0.6525     8.4690 </r>
       <r>   -13.9664     0.8247     8.8968 </r>
       <r>   -13.4476     1.3054     9.5741 </r>
       <r>   -12.9288     2.3795    10.8086 </r>
       <r>   -12.4099     2.2901    11.9968 </r>
       <r>   -11.8911     0.0063    12.0000 </r>
       <r>   -11.3723     0.0000    12.0000 </r>
       <r>   -10.8535     0.0000    12.0000 </r>
       <r>   -10.3347     0.0000    12.0000 </r>
       <r>    -9.8159     0.0000    12.0000 </r>
       <r>    -9.2970     0.0000    12.0000 </r>
       <r>    -8.7782     0.0000    12.0000 </r>
       <r>    -8.2594     0.0000    12.0000 </r>
       <r>    -7.7406     0.0000    12.0000 </r>
       <r>    -7.2218     0.0000    12.0000 </r>
       <r>    -6.7030     0.0000    12.0000 </r>
       <r>    -6.1841     0.0000    12.0000 </r>
       <r>    -5.6653     0.0000    12.0000 </r>
       <r>    -5.1465     0.0000    12.0000 </r>
       <r>    -4.6277     0.0000    12.0000 </r>
       <r>    -4.1089     0.0000    12.0000 </r>
       <r>    -3.5901     0.0000    12.0000 </r>
       <r>    -3.0712     0.0000    12.0000 </r>
       <r>    -2.5524     0.0455    12.0236 </r>
       <r>    -2.0336     1.1142    12.6017 </r>
       <r>    -1.5148     2.6944    13.9996 </r>
       <r>    -0.9960     2.3869    15.2379 </r>
       <r>    -0.4772     1.0532    15.7844 </r>
       <r>     0.0416     1.2065    16.4103 </r>
       <r>     0.5605     1.9694    17.4321 </r>
       <r>     1.0793     2.0071    18.4734 </r>
       <r>     1.5981     3.2880    20.1793 </r>
       <r>     2.1169     3.5491    22.0206 </r>
       <r>     2.6357     3.0477    23.6018 </r>
       <r>     3.1545     1.8209    24.5465 </r>
       <r>     3.6734     2.1832    25.6792 </r>
       <r>     4.1922     3.3896    27.4378 </r>
       <r>     4.7110     6.9584    31.0479 </r>
       <r>     5.2298     3.9955    33.1208 </r>
       <r>     5.7486     1.2508    33.7697 </r>
       <r>     6.2674     0.4437    33.9999 </r>
       <r>     6.7863     0.0001    34.0000 </r>
       <r>     7.3051     0.0000    34.0000 </r>
       <r>     7.8239     0.0107    34.0055 </r>
       <r>     8.3427     0.2891    34.1555 </r>
       <r>     8.8615     1.6639    35.0188 </r>
       <r>     9.3803     1.3071    35.6969 </r>
       <r>     9.8992     0.3391    35.8728 </r>
       <r>    10.4180     0.1938    35.9734 </r>
       <r>    10.9368     0.0773    36.0135 </r>
       <r>    11.4556     0.0764    36.0531 </r>
       <r>    11.9744     0.1648    36.1386 </r>
       <r>    12.4932     0.8713    36.5907 </r>
       <r>    13.0121     0.6621    36.9342 </r>
       <r>    13.5309     1.2265    37.5705 </r>
       <r>    14.0497     1.2993    38.2446 </r>
       <r>    14.5685     1.4740    39.0093 </r>
       <r>    15.0873     1.0973    39.5786 </r>
       <r>    15.6061     1.3442    40.2760 </r>
       <r>    16.1249     1.2762    40.9381 </r>
       <r>    16.6438     1.4857    41.7089 </r>
       <r>    17.1626     2.2548    42.8788 </r>
       <r>    17.6814     2.8810    44.3734 </r>
       <r>    18.2002     2.7161    45.7826 </r>
       <r>    18.7190     1.9467    46.7926 </r>
       <r>    19.2378     1.9816    47.8207 </r>
       <r>    19.7567     1.1783    48.4320 </r>
       <r>    20.2755     1.6193    49.2721 </r>
       <r>    20.7943     1.1872    49.8881 </r>
       <r>    21.3131     1.9486    50.8990 </r>
       <r>    21.8319     1.7512    51.8076 </r>
       <r>    22.3507     0.8374    52.2421 </r>
       <r>    22.8696     1.4842    53.0121 </r>
       <r>    23.3884     1.8647    53.9795 </r>
       <r>    23.9072     1.1607    54.5818 </r>
       <r>    24.4260     1.0929    55.1488 </r>
       <r>    24.9448     1.1963    55.7694 </r>
       <r>    25.4636     1.3728    56.4817 </r>
       <r>    25.9825     1.5049    57.2624 </r>
       <r>    26.5013     1.3130    57.9436 </r>
       <r>    27.0201     1.4316    58.6864 </r>
       <r>    27.5389     1.5078    59.4686 </r>
       <r>    28.0577     1.2795    60.1324 </r>
       <r>    28.5765     1.1155    60.7111 </r>
       <r>    29.0954     1.0739    61.2683 </r>
       <r>    29.6142     1.1625    61.8714 </r>
       <r>    30.1330     1.5057    62.6526 </r>
       <r>    30.6518     1.3269    63.3410 </r>
       <r>    31.1706     1.4934    64.1158 </r>
       <r>    31.6894     2.1169    65.2141 </r>
       <r>    32.2083     1.7279    66.1105 </r>
       <r>    32.7271     1.7170    67.0014 </r>
       <r>    33.2459     2.3322    68.2114 </r>
       <r>    33.7647     2.3644    69.4381 </r>
       <r>    34.2835     1.6370    70.2874 </r>
       <r>    34.8023     0.8370    70.7216 </r>
       <r>    35.3211     1.1724    71.3299 </r>
       <r>    35.8400     1.0387    71.8688 </r>
       <r>    36.3588     0.2521    71.9996 </r>
       <r>    36.8776     0.0007    72.0000 </r>
       <r>    37.3964     0.0000    72.0000 </r>
       <r>    37.9152     0.0000    72.0000 </r>
       <r>    38.4340     0.0000    72.0000 </r>
       <r>    38.9529     0.0000    72.0000 </r>
       <r>    39.4717     0.0000    72.0000 </r>
       <r>    39.9905     0.0000    72.0000 </r>
       <r>    40.5093     0.0000    72.0000 </r>
       <r>    41.0281     0.0000    72.0000 </r>
       <r>    41.5469     0.0000    72.0000 </r>
       <r>    42.0658     0.0000    72.0000 </r>
       <r>    42.5846     0.0000    72.0000 </r>
       <r>    43.1034     0.0000    72.0000 </r>
      </set>
     </set>
    </array>
   </total>
  </dos>
 </calculation>
 <structure name="finalpos" >
  <crystal>
   <varray name="basis" >
    <v>       1.42005454       0.81986888       5.62827908 </v>
    <v>      -1.42005454       0.81986888       5.62827908 </v>
    <v>       0.00000000      -1.63973774       5.62827908 </v>
   </varray>
   <i name="volume">     39.31663112 </i>
   <varray name="rec_basis" >
    <v>       0.35209915       0.20328454       0.05922473 </v>
    <v>      -0.35209915       0.20328454       0.05922473 </v>
    <v>      -0.00000000      -0.40656908       0.05922473 </v>
   </varray>
  </crystal>
  <varray name="positions" >
   <v>       0.00000000       0.00000000       0.00000000 </v>
   <v>       0.50000000       0.50000000       0.50000000 </v>
   <v>       0.10956395       0.10956395       0.10956395 </v>
   <v>       0.89043605       0.89043605       0.89043605 </v>
  </varray>
 </structure>
</modeling>
