
:LABEL1: Calculations in /home/stevezhang/work/CuMO2/convergence/CuAlO2/rkmax_8-scfk_4c/CuAlO2
:LABEL2: on MZ at Mon Jun 21 18:50:10 CST 2021
:LABEL3: using WIEN2k_14.2 (Release 15/10/2014) in /home/stevezhang/wien2k/v14.2
:LABEL4: using the command: run_lapw -ec 0.000000001


            ---------
:ITE001:  1. ITERATION
            ---------

:NATO :    3 INDEPENDENT AND    4 TOTAL ATOMS IN UNITCELL
       SUBSTANCE: CuAlO2 BenkoF84                                             

       LATTICE                      = R   
:POT  : POTENTIAL OPTION EX_PBE EC_PBE VX_PBE VC_PBE
:LAT  : LATTICE CONSTANTS=  5.40508  5.40508 32.03482
:VOL  : UNIT CELL VOLUME =     270.16967
       MODE OF CALCULATION IS       = RELA
       NON-SPINPOLARIZED CALCULATION
:IFFT  : FFT-parameters:   90   90   90 Factor: 2.00
       ATOMNUMBER=  1 Cu1        VCOUL-ZERO =  0.40698E+00
:EFG001:                        EFG         =     0.13795   *10**21  V / m**2
                               V20  TOT/SRF=     0.11947     0.33248
                               V22  TOT/SRF=     0.00000     0.00000
                               V22M TOT/SRF=     0.00000     0.00000
                               V21  TOT/SRF=     0.00000     0.00000
                               V21M TOT/SRF=     0.00000     0.00000

             -0.06898    0.00000    0.00000       -0.06898    0.00000    0.00000
              0.00000   -0.06898    0.00000        0.00000   -0.06898    0.00000
              0.00000    0.00000    0.13795        0.00000    0.00000    0.13795

         MAIN DIRECTIONS OF THE EFG   1.0000  0.0000  0.0000
                                      0.0000  1.0000  0.0000
                                      0.0000  0.0000  1.0000
:ANG001:  ANGLE WITH OLD X-AXIS =         0.0

:ETA001:                         ASYMM. ETA =     0.00000


       ATOMNUMBER=  2 Al1        VCOUL-ZERO = -0.82377E-01
:EFG002:                        EFG         =    -0.14341   *10**21  V / m**2
                               V20  TOT/SRF=    -0.12420    -0.19627
                               V22  TOT/SRF=     0.00000     0.00000
                               V22M TOT/SRF=     0.00000     0.00000
                               V21  TOT/SRF=     0.00000     0.00000
                               V21M TOT/SRF=     0.00000     0.00000

              0.07170    0.00000    0.00000        0.07170    0.00000    0.00000
              0.00000    0.07170    0.00000        0.00000    0.07170    0.00000
              0.00000    0.00000   -0.14341        0.00000    0.00000   -0.14341

         MAIN DIRECTIONS OF THE EFG   1.0000  0.0000  0.0000
                                      0.0000  1.0000  0.0000
                                      0.0000  0.0000  1.0000
:ANG002:  ANGLE WITH OLD X-AXIS =         0.0

:ETA002:                         ASYMM. ETA =     0.00000


       ATOMNUMBER=  3 O 1        VCOUL-ZERO =  0.17190E-01
:EFG003:                        EFG         =     0.24230   *10**21  V / m**2
                               V20  TOT/SRF=     0.20984     0.27389
                               V22  TOT/SRF=     0.00000     0.00000
                               V22M TOT/SRF=     0.00000     0.00000
                               V21  TOT/SRF=     0.00000     0.00000
                               V21M TOT/SRF=     0.00000     0.00000

             -0.12115    0.00000    0.00000       -0.12115    0.00000    0.00000
              0.00000   -0.12115    0.00000        0.00000   -0.12115    0.00000
              0.00000    0.00000    0.24230        0.00000    0.00000    0.24230

         MAIN DIRECTIONS OF THE EFG   1.0000  0.0000  0.0000
                                      0.0000  1.0000  0.0000
                                      0.0000  0.0000  1.0000
:ANG003:  ANGLE WITH OLD X-AXIS =         0.0

:ETA003:                         ASYMM. ETA =     0.00000


     HELLMANN-FEYNMAN-FORCE IN mRy/a.u. = |F|  Fx       Fy             Fz
:FHF001:   1.ATOM      0.000000000      0.000000000      0.000000000      0.000000000

     HELLMANN-FEYNMAN-FORCE IN mRy/a.u. = |F|  Fx       Fy             Fz
:FHF002:   2.ATOM      0.000000000      0.000000000      0.000000000      0.000000000

     HELLMANN-FEYNMAN-FORCE IN mRy/a.u. = |F|  Fx       Fy             Fz
:FHF003:   3.ATOM    632.392677065      0.000000000      0.000000000   -632.392677065

:FIT001: LUSE= 13 SIGMA OF V-XC FIT FOR ATOM  1  0.7569698E-02
:FIT001: LUSE= 13 SIGMA OF V-XC FIT FOR ATOM  1  0.7569698E-02
:FIT002: LUSE= 13 SIGMA OF V-XC FIT FOR ATOM  2  0.4811514E-02
:FIT002: LUSE= 13 SIGMA OF V-XC FIT FOR ATOM  2  0.4811514E-02
:FIT003: LUSE= 13 SIGMA OF V-XC FIT FOR ATOM  3  0.4855342E-04
:FIT003: LUSE= 13 SIGMA OF V-XC FIT FOR ATOM  3  0.4855342E-04
:DEN  : DENSITY INTEGRAL  =         -1791.58329855   (Ry)
       ELS_POTENTIAL_AT Z=0 and Z=0.5:   0.00000   0.00000
       ELS_POTENTIAL_AT Y=0 and Y=0.5:   0.00000   0.00000
:VZERO:v0,v0c,v0x  -0.83019   0.00000  -0.83019 v5,v5c,v5x  -0.83019   0.00000  -0.83019
:VZERY:v0,v0c,v0x  -0.83019   0.00000  -0.83019 v5,v5c,v5x  -0.83019   0.00000  -0.83019
:VZERX:v0,v0c,v0x  -2.47426  -1.25407  -1.22018 v5,v5c,v5x  -0.01019   0.44441  -0.45459

          ATOMIC SPHERE DEPENDENT PARAMETERS FOR ATOM  Cu1       
:e__0001: OVERALL ENERGY PARAMETER IS    0.3000
          OVERALL BASIS SET ON ATOM IS LAPW
:E1_0001: E( 1)=    0.3000
             APW+lo
:E1_0001: E( 1)=   -4.6487   E(BOTTOM)=   -4.714   E(TOP)=   -4.583  1  2   168
             LOCAL ORBITAL
:E2_0001: E( 2)=    0.2878   E(BOTTOM)=   -0.031   E(TOP)=    0.607  0  1   131
             APW+lo
:E0_0001: E( 0)=    0.3000
             APW+lo

          ATOMIC SPHERE DEPENDENT PARAMETERS FOR ATOM  Al1       
:e__0002: OVERALL ENERGY PARAMETER IS    0.3000
          OVERALL BASIS SET ON ATOM IS LAPW
:E1_0002: E( 1)=    0.3000
             APW+lo
:E1_0002: E( 1)=   -4.1253   E(BOTTOM)=   -4.231   E(TOP)=   -4.020  0  1   164
             LOCAL ORBITAL
:E0_0002: E( 0)=    0.3000
             APW+lo

          ATOMIC SPHERE DEPENDENT PARAMETERS FOR ATOM  O 1       
:e__0003: OVERALL ENERGY PARAMETER IS    0.3000
          OVERALL BASIS SET ON ATOM IS LAPW
:E0_0003: E( 0)=   -1.5500   E(BOTTOM)=   -2.792   E(TOP)= -200.000  1 -1   246
             APW+lo
:E0_0003: E( 0)=    0.7000
             LOCAL ORBITAL
:E1_0003: E( 1)=    0.3000
             APW+lo

       K=   0.00000   0.00000   0.00000            1
:RKM  : MATRIX SIZE   846LOs:  29  RKM= 7.91  WEIGHT= 1.00  PGR:    
       EIGENVALUES ARE:
:EIG00001:      -4.6409170   -4.6310426   -4.6310426   -4.1002454   -4.1002454
:EIG00006:      -4.0957151   -1.1955833   -1.0573489   -0.2100195    0.0631765
:EIG00011:       0.0631765    0.0672722    0.1309194    0.1309194    0.2217708
:EIG00016:       0.3270218    0.3270218    0.3614496    0.3614496    0.5747130
:EIG00021:       0.9045032    0.9510813    1.3463027    1.4894018    1.4894018
:EIG00026:       1.5573970    1.5865894    1.5865894    1.9073893    1.9666772
:EIG00031:       1.9666772
       ********************************************************

:KPT   :      NUMBER OF K-POINTS:    13
       Insulator, EF-inconsistency corrected
:GAP  :    0.1404 Ry =     1.910 eV   (provided you have a proper k-mesh)
         Bandranges (emin - emax) and occupancy:
:BAN00009:   9   -0.210020   -0.132566  2.00000000
:BAN00010:  10   -0.170140    0.063177  2.00000000
:BAN00011:  11   -0.095860    0.074305  2.00000000
:BAN00012:  12    0.005215    0.074305  2.00000000
:BAN00013:  13    0.028829    0.130919  2.00000000
:BAN00014:  14    0.048294    0.130919  2.00000000
:BAN00015:  15    0.221771    0.314098  2.00000000
:BAN00016:  16    0.321154    0.337793  2.00000000
:BAN00017:  17    0.327022    0.361637  2.00000000
:BAN00018:  18    0.345863    0.376060  2.00000000
:BAN00019:  19    0.356826    0.434281  2.00000000
:BAN00020:  20    0.574713    0.755175  0.00000000
:BAN00021:  21    0.769096    1.093484  0.00000000
:BAN00022:  22    0.951081    1.126770  0.00000000
:BAN00023:  23    1.109833    1.346303  0.00000000
:BAN00024:  24    1.223622    1.491844  0.00000000
        Energy to separate low and high energystates:   -0.26002


:NOE  : NUMBER OF ELECTRONS          =  38.000

:FER  : F E R M I - ENERGY(TETRAH.M.)=   0.4342805845
:GMA  : POTENTIAL AND CHARGE CUT-OFF  12.00 Ry**.5




:POS001: ATOM   -1 X,Y,Z = 0.00000 0.00000 0.00000  MULT= 1  ZZ= 29.000  Cu1       

       LMMAX  7
       LM=   0 0  2 0  4 0  4 3  6 0  6 3  6 6

:CHA001: TOTAL VALENCE CHARGE INSIDE SPHERE   1 =  15.4453    (RMT=  2.0000 )
:PCS001: PARTIAL CHARGES SPHERE =  1 S,P,D,F,PZ,PXY, D-Z2,D-XY,X2Y2,D-XZ,YZ 
:QTL001: 0.2106 6.1185 9.0928 0.0173 2.0923 4.0262 0.0000 1.6659 3.6778 3.7492 0.0000 0.0000
        Q-s-low E-s-low   Q-p-low E-p-low   Q-d-low E-d-low   Q-f-low E-f-low
:EPL001:  0.0133 -1.0833    5.9995 -4.6255    0.0169 -1.0817    0.0027 -1.0845
        Q-s-hi  E-s-hi    Q-p-hi  E-p-hi    Q-d-hi  E-d-hi    Q-f-hi  E-f-hi 
:EPH001:  0.1973  0.1296    0.1190  0.0492    9.0760  0.3275    0.0146  0.0219
:VZZ001: EFG INSIDE SPHERE   1 =    -4.941401      UP TO R =   2.00000




:POS002: ATOM   -2 X,Y,Z = 0.50000 0.50000 0.50000  MULT= 1  ZZ= 13.000  Al1       

       LMMAX  7
       LM=   0 0  2 0  4 0  4 3  6 0  6 3  6 6

:CHA002: TOTAL VALENCE CHARGE INSIDE SPHERE   2 =   6.5276    (RMT=  1.8000 )
:PCS002: PARTIAL CHARGES SPHERE =  2 S,P,D,F,PZ,PXY, D-Z2,D-XY,X2Y2,D-XZ,YZ 
:QTL002: 0.1866 6.2051 0.1119 0.0194 2.0584 4.1467 0.0000 0.0082 0.0481 0.0557 0.0000 0.0000
        Q-s-low E-s-low   Q-p-low E-p-low   Q-d-low E-d-low   Q-f-low E-f-low
:EPL002:  0.0301 -1.1404    6.0063 -4.0807    0.0154 -1.0580    0.0030 -1.0781
        Q-s-hi  E-s-hi    Q-p-hi  E-p-hi    Q-d-hi  E-d-hi    Q-f-hi  E-f-hi 
:EPH002:  0.1565 -0.1213    0.1988 -0.0230    0.0965  0.0273    0.0164  0.0440
:VZZ002: EFG INSIDE SPHERE   2 =     0.963667      UP TO R =   1.80000




:POS003: ATOM   -3 X,Y,Z = 0.10979 0.10979 0.10979  MULT= 2  ZZ=  8.000  O 1       

       LMMAX 12
       LM=   0 0  1 0  2 0  3 0  3 3  4 0  4 3  5 0  5 3  6 0  6 3  6 6

:CHA003: TOTAL VALENCE CHARGE INSIDE SPHERE   3 =   4.9697    (RMT=  1.4000 )
:PCS003: PARTIAL CHARGES SPHERE =  3 S,P,D,F,PZ,PXY, D-Z2,D-XY,X2Y2,D-XZ,YZ 
:QTL003: 1.4249 3.5374 0.0065 0.0007 1.1540 2.3834 0.0000 0.0015 0.0009 0.0041 0.0000 0.0000
        Q-s-low E-s-low   Q-p-low E-p-low   Q-d-low E-d-low   Q-f-low E-f-low
:EPL003:  1.3832 -1.0828    0.0064 -1.2767    0.0002 -2.6624    0.0001 -2.4549
        Q-s-hi  E-s-hi    Q-p-hi  E-p-hi    Q-d-hi  E-d-hi    Q-f-hi  E-f-hi 
:EPH003:  0.0418 -0.0607    3.5310  0.0051    0.0063  0.1868    0.0006  0.2354
:VZZ003: EFG INSIDE SPHERE   3 =     2.618419      UP TO R =   1.40000

:CHA  : TOTAL VALENCE CHARGE INSIDE UNIT CELL =      38.000000

:SUM  : SUM OF EIGENVALUES =         -53.569951035


        1.ATOM      Cu1                   5 CORE STATES
:1S 001: 1S                -649.705922202 Ry
:2S 001: 2S                 -77.430426759 Ry
:2PP001: 2P*                -67.744559847 Ry
:2P 001: 2P                 -66.238638324 Ry
:3S 001: 3S                  -7.770482127 Ry

        2.ATOM      Al1                   2 CORE STATES
:1S 002: 1S                -110.024679797 Ry
:2S 002: 2S                  -6.929846692 Ry

        3.ATOM      O 1                   1 CORE STATES
       CORE-FORCE in mRy/a.u. = |F|      Fx             Fy             Fz
:FCO003:   3.ATOM    160.050999190      0.000000000      0.000000000    160.050999190

:1S 003: 1S                 -36.976970810 Ry
:CINT001 Core Integral Atom   1   11.998557
:CINT002 Core Integral Atom   2    3.995890
:CINT003 Core Integral Atom   3    1.999999

       DENSITY AT NUCLEUS
        JATOM        VALENCE       SEMI-CORE          CORE           TOTAL
:RTO001:   1        5.899249        0.000000    22630.787822    22636.687071
:RTO002:   2        2.335570        0.000000     1486.726618     1489.062188
:RTO003:   3       15.607636        0.000000      303.968862      319.576498
     
       CHARGES OF NEW CHARGE DENSITY
:NTO   : INTERSTITIAL CHARGE =     6.087629
:NTO001: CHARGE SPHERE  1    =    27.443870
:NTO002: CHARGE SPHERE  2    =    10.523451
:NTO003: CHARGE SPHERE  3    =     6.969741

:NEC01: NUCLEAR AND ELECTRONIC CHARGE     58.00000    57.99443
     
       CHARGES OF OLD CHARGE DENSITY
:OTO   : INTERSTITIAL CHARGE =     7.173473
:OTO001: CHARGE SPHERE  1    =    27.282985
:OTO002: CHARGE SPHERE  2    =    10.843492
:OTO003: CHARGE SPHERE  3    =     6.350577

:NEC02: NUCLEAR AND ELECTRONIC CHARGE     58.00000    58.00110
     
       CONVERGENCE TEST
:DTO001: DIFFERENCE IN SPHERE  1 =  0.5879599
:DTO002: DIFFERENCE IN SPHERE  2 =  0.2964491
:DTO003: DIFFERENCE IN SPHERE  3 =  0.7895749

:DIS  :  CHARGE DISTANCE       ( 0.7895749 for atom    3 spin 1)      0.6158897
:BIG check (qbig,qrms,qtot)    0.263D+00   0.458D+00   0.616D+00
 
******************************************************
* MULTISECANT MIXING VER6 RELEASE 6.0 OPTIONS        *
* Standard Mode with controls                        *
* Regularization       1.000E-06                     *
* Trust Region Control Active                        *
* Max Number of Memory Steps    8                    *
******************************************************
 
:PLANE:  INTERSTITIAL TOTAL      1.68234 DISTAN  2.568E+01 % 
:CHARG:  CLM CHARGE   /ATOM     54.20733 DISTAN  1.746E+00 % 
:REDuction and DMIX in Broyd:    0.7902    0.1580
:DIRM :  MEMORY  0/ 8 RESCALES   1.00
:MIX  :   PRATT  REGULARIZATION: 1.00E-06  GREED: 0.035
     
       CHARGES OF MIXED CHARGE DENSITY
:CTO   : INTERSTITIAL CHARGE =     7.134597
:CTO001: CHARGE SPHERE  1    =    27.288616
:CTO002: CHARGE SPHERE  2    =    10.832290
:CTO003: CHARGE SPHERE  3    =     6.372248

:NEC03: NUCLEAR AND ELECTRONIC CHARGE     58.00000    58.00000

PW CHANGE     H    K    L       Current     Change     Residue
:PTO001:      0    0    0  6.78843656E-02 -1.173E-05 -3.352E-04
:PTO002:     -1   -1   -1 -1.79479366E-02 -2.007E-04 -5.733E-03
:PTO003:     -2   -2   -2 -2.27540018E-03 -2.132E-04 -6.092E-03
:PTO004:     -1    0    0  1.10183232E-01  8.890E-04  2.540E-02
:PTO005:     -1   -1    0  6.57694633E-02  1.055E-04  3.014E-03
:PTO006:     -2   -1   -1 -5.22900316E-02 -1.024E-03 -2.925E-02
:PTO007:     -2   -2   -1 -6.44147181E-02 -9.152E-04 -2.615E-02
:PTO008:     -3   -3   -3  2.97595344E-02  2.856E-04  8.161E-03
:PTO009:     -3   -2   -2  1.81620802E-02  1.304E-04  3.726E-03
:PTO010:     -3   -3   -2  5.29550578E-02  4.924E-04  1.407E-02
:PTO011:     -1    0    1  4.64281440E-02  3.216E-04  9.188E-03
:PTO012:     -4   -4   -4 -2.25619295E-03 -1.048E-04 -2.995E-03

:ENE  : ********** TOTAL ENERGY IN Ry =        -4097.22752097

       TOTAL FORCE IN mRy/a.u. = |F|     Fx             Fy             Fz     with/without FOR in case.in2
:FOR001:   1.ATOM          0.000          0.000          0.000          0.000 partial forces
:FOR002:   2.ATOM          0.000          0.000          0.000          0.000 partial forces
:FOR003:   3.ATOM        472.342          0.000          0.000       -472.342 partial forces
       TOTAL FORCE WITH RESPECT TO GLOBAL CARTESIAN COORDINATES:
:FCA001:   1.ATOM                         0.000          0.000          0.000 partial forces
:FCA002:   2.ATOM                         0.000          0.000          0.000 partial forces
:FCA003:   3.ATOM                         0.000          0.000       -472.342 partial forces
       TOTAL FORCE WITH RESPECT TO THE GLOBAL COORDINATE SYSTEM:
:FGL001:   1.ATOM                 0.000000000     0.000000000     0.000000000 partial forces
:FGL002:   2.ATOM                 0.000000000     0.000000000     0.000000000 partial forces
:FGL003:   3.ATOM              -472.341677875  -472.341677875  -472.341677875 partial forces


            ---------
:ITE002:  2. ITERATION
            ---------

:NATO :    3 INDEPENDENT AND    4 TOTAL ATOMS IN UNITCELL
       SUBSTANCE: CuAlO2 BenkoF84                                             

       LATTICE                      = R   
:POT  : POTENTIAL OPTION EX_PBE EC_PBE VX_PBE VC_PBE
:LAT  : LATTICE CONSTANTS=  5.40508  5.40508 32.03482
:VOL  : UNIT CELL VOLUME =     270.16967
       MODE OF CALCULATION IS       = RELA
       NON-SPINPOLARIZED CALCULATION
:IFFT  : FFT-parameters:   90   90   90 Factor: 2.00
       ATOMNUMBER=  1 Cu1        VCOUL-ZERO =  0.40264E+00
:EFG001:                        EFG         =    -0.04353   *10**21  V / m**2
                               V20  TOT/SRF=    -0.03770     0.31479
                               V22  TOT/SRF=     0.00000     0.00000
                               V22M TOT/SRF=     0.00000     0.00000
                               V21  TOT/SRF=     0.00000     0.00000
                               V21M TOT/SRF=     0.00000     0.00000

              0.02177    0.00000    0.00000        0.02177    0.00000    0.00000
              0.00000    0.02177    0.00000        0.00000    0.02177    0.00000
              0.00000    0.00000   -0.04353        0.00000    0.00000   -0.04353

         MAIN DIRECTIONS OF THE EFG   1.0000  0.0000  0.0000
                                      0.0000  1.0000  0.0000
                                      0.0000  0.0000  1.0000
:ANG001:  ANGLE WITH OLD X-AXIS =         0.0

:ETA001:                         ASYMM. ETA =     0.00000


       ATOMNUMBER=  2 Al1        VCOUL-ZERO = -0.82314E-01
:EFG002:                        EFG         =    -0.10236   *10**21  V / m**2
                               V20  TOT/SRF=    -0.08865    -0.18529
                               V22  TOT/SRF=     0.00000     0.00000
                               V22M TOT/SRF=     0.00000     0.00000
                               V21  TOT/SRF=     0.00000     0.00000
                               V21M TOT/SRF=     0.00000     0.00000

              0.05118    0.00000    0.00000        0.05118    0.00000    0.00000
              0.00000    0.05118    0.00000        0.00000    0.05118    0.00000
              0.00000    0.00000   -0.10236        0.00000    0.00000   -0.10236

         MAIN DIRECTIONS OF THE EFG   1.0000  0.0000  0.0000
                                      0.0000  1.0000  0.0000
                                      0.0000  0.0000  1.0000
:ANG002:  ANGLE WITH OLD X-AXIS =         0.0

:ETA002:                         ASYMM. ETA =     0.00000


       ATOMNUMBER=  3 O 1        VCOUL-ZERO =  0.29790E-01
:EFG003:                        EFG         =     0.33503   *10**21  V / m**2
                               V20  TOT/SRF=     0.29014     0.27237
                               V22  TOT/SRF=     0.00000     0.00000
                               V22M TOT/SRF=     0.00000     0.00000
                               V21  TOT/SRF=     0.00000     0.00000
                               V21M TOT/SRF=     0.00000     0.00000

             -0.16751    0.00000    0.00000       -0.16751    0.00000    0.00000
              0.00000   -0.16751    0.00000        0.00000   -0.16751    0.00000
              0.00000    0.00000    0.33503        0.00000    0.00000    0.33503

         MAIN DIRECTIONS OF THE EFG   1.0000  0.0000  0.0000
                                      0.0000  1.0000  0.0000
                                      0.0000  0.0000  1.0000
:ANG003:  ANGLE WITH OLD X-AXIS =         0.0

:ETA003:                         ASYMM. ETA =     0.00000


     HELLMANN-FEYNMAN-FORCE IN mRy/a.u. = |F|  Fx       Fy             Fz
:FHF001:   1.ATOM      0.000000000      0.000000000      0.000000000      0.000000000

     HELLMANN-FEYNMAN-FORCE IN mRy/a.u. = |F|  Fx       Fy             Fz
:FHF002:   2.ATOM      0.000000000      0.000000000      0.000000000      0.000000000

     HELLMANN-FEYNMAN-FORCE IN mRy/a.u. = |F|  Fx       Fy             Fz
:FHF003:   3.ATOM    597.362116347      0.000000000      0.000000000   -597.362116347

:FIT001: LUSE= 13 SIGMA OF V-XC FIT FOR ATOM  1  0.7541194E-02
:FIT001: LUSE= 13 SIGMA OF V-XC FIT FOR ATOM  1  0.7541194E-02
:FIT002: LUSE= 13 SIGMA OF V-XC FIT FOR ATOM  2  0.4802474E-02
:FIT002: LUSE= 13 SIGMA OF V-XC FIT FOR ATOM  2  0.4802474E-02
:FIT003: LUSE= 13 SIGMA OF V-XC FIT FOR ATOM  3  0.5246651E-04
:FIT003: LUSE= 13 SIGMA OF V-XC FIT FOR ATOM  3  0.5246651E-04
:DEN  : DENSITY INTEGRAL  =         -1792.25219788   (Ry)
       ELS_POTENTIAL_AT Z=0 and Z=0.5:   0.00000   0.00000
       ELS_POTENTIAL_AT Y=0 and Y=0.5:   0.00000   0.00000
:VZERO:v0,v0c,v0x  -0.82857   0.00000  -0.82857 v5,v5c,v5x  -0.82857   0.00000  -0.82857
:VZERY:v0,v0c,v0x  -0.82857   0.00000  -0.82857 v5,v5c,v5x  -0.82857   0.00000  -0.82857
:VZERX:v0,v0c,v0x  -2.46183  -1.24065  -1.22118 v5,v5c,v5x  -0.01827   0.43090  -0.44918

          ATOMIC SPHERE DEPENDENT PARAMETERS FOR ATOM  Cu1       
:e__0001: OVERALL ENERGY PARAMETER IS    0.2507
          OVERALL BASIS SET ON ATOM IS LAPW
:E1_0001: E( 1)=    0.2507
             APW+lo
:E1_0001: E( 1)=   -4.6382   E(BOTTOM)=   -4.704   E(TOP)=   -4.573  1  2   177
             LOCAL ORBITAL
:E2_0001: E( 2)=    0.2962   E(BOTTOM)=   -0.025   E(TOP)=    0.617  0  1   132
             APW+lo
:E0_0001: E( 0)=    0.2507
             APW+lo

          ATOMIC SPHERE DEPENDENT PARAMETERS FOR ATOM  Al1       
:e__0002: OVERALL ENERGY PARAMETER IS    0.2507
          OVERALL BASIS SET ON ATOM IS LAPW
:E1_0002: E( 1)=    0.2507
             APW+lo
:E1_0002: E( 1)=   -4.1310   E(BOTTOM)=   -4.236   E(TOP)=   -4.026  0  1   168
             LOCAL ORBITAL
:E0_0002: E( 0)=    0.2507
             APW+lo

          ATOMIC SPHERE DEPENDENT PARAMETERS FOR ATOM  O 1       
:e__0003: OVERALL ENERGY PARAMETER IS    0.2507
          OVERALL BASIS SET ON ATOM IS LAPW
:E0_0003: E( 0)=   -1.5500   E(BOTTOM)=   -2.772   E(TOP)= -200.000  1 -1   242
             APW+lo
:E0_0003: E( 0)=    0.6507
             LOCAL ORBITAL
:E1_0003: E( 1)=    0.2507
             APW+lo

       K=   0.00000   0.00000   0.00000            1
:RKM  : MATRIX SIZE   846LOs:  29  RKM= 7.91  WEIGHT= 1.00  PGR:    
       EIGENVALUES ARE:
:EIG00001:      -4.6299742   -4.6206434   -4.6206434   -4.1058962   -4.1058962
:EIG00006:      -4.1017489   -1.1798543   -1.0399394   -0.1977308    0.0802798
:EIG00011:       0.0802798    0.0843589    0.1493234    0.1493234    0.2239500
:EIG00016:       0.3344588    0.3344588    0.3708697    0.3708697    0.5829385
:EIG00021:       0.9090430    0.9595542    1.3483621    1.4926449    1.4926449
:EIG00026:       1.5636528    1.5907075    1.5907075    1.9055891
       ********************************************************

:KPT   :      NUMBER OF K-POINTS:    13
       Insulator, EF-inconsistency corrected
:GAP  :    0.1386 Ry =     1.885 eV   (provided you have a proper k-mesh)
         Bandranges (emin - emax) and occupancy:
:BAN00009:   9   -0.197731   -0.118555  2.00000000
:BAN00010:  10   -0.157021    0.080280  2.00000000
:BAN00011:  11   -0.082132    0.092013  2.00000000
:BAN00012:  12    0.021106    0.092013  2.00000000
:BAN00013:  13    0.044832    0.149323  2.00000000
:BAN00014:  14    0.064576    0.149323  2.00000000
:BAN00015:  15    0.223950    0.321079  2.00000000
:BAN00016:  16    0.329554    0.344190  2.00000000
:BAN00017:  17    0.334459    0.371429  2.00000000
:BAN00018:  18    0.354864    0.384356  2.00000000
:BAN00019:  19    0.366080    0.444335  2.00000000
:BAN00020:  20    0.582938    0.757101  0.00000000
:BAN00021:  21    0.775474    1.094194  0.00000000
:BAN00022:  22    0.959554    1.132570  0.00000000
:BAN00023:  23    1.112229    1.348362  0.00000000
:BAN00024:  24    1.229598    1.495203  0.00000000
        Energy to separate low and high energystates:   -0.24773


:NOE  : NUMBER OF ELECTRONS          =  38.000

:FER  : F E R M I - ENERGY(TETRAH.M.)=   0.4443353356
:GMA  : POTENTIAL AND CHARGE CUT-OFF  12.00 Ry**.5




:POS001: ATOM   -1 X,Y,Z = 0.00000 0.00000 0.00000  MULT= 1  ZZ= 29.000  Cu1       

       LMMAX  7
       LM=   0 0  2 0  4 0  4 3  6 0  6 3  6 6

:CHA001: TOTAL VALENCE CHARGE INSIDE SPHERE   1 =  15.4315    (RMT=  2.0000 )
:PCS001: PARTIAL CHARGES SPHERE =  1 S,P,D,F,PZ,PXY, D-Z2,D-XY,X2Y2,D-XZ,YZ 
:QTL001: 0.2175 6.1219 9.0687 0.0173 2.0939 4.0280 0.0000 1.6523 3.6708 3.7456 0.0000 0.0000
        Q-s-low E-s-low   Q-p-low E-p-low   Q-d-low E-d-low   Q-f-low E-f-low
:EPL001:  0.0136 -1.0659    5.9996 -4.6148    0.0171 -1.0642    0.0027 -1.0662
        Q-s-hi  E-s-hi    Q-p-hi  E-p-hi    Q-d-hi  E-d-hi    Q-f-hi  E-f-hi 
:EPH001:  0.2039  0.1407    0.1222  0.0649    9.0515  0.3354    0.0147  0.0387
:VZZ001: EFG INSIDE SPHERE   1 =    -4.833019      UP TO R =   2.00000




:POS002: ATOM   -2 X,Y,Z = 0.50000 0.50000 0.50000  MULT= 1  ZZ= 13.000  Al1       

       LMMAX  7
       LM=   0 0  2 0  4 0  4 3  6 0  6 3  6 6

:CHA002: TOTAL VALENCE CHARGE INSIDE SPHERE   2 =   6.5384    (RMT=  1.8000 )
:PCS002: PARTIAL CHARGES SPHERE =  2 S,P,D,F,PZ,PXY, D-Z2,D-XY,X2Y2,D-XZ,YZ 
:QTL002: 0.1905 6.2100 0.1138 0.0195 2.0601 4.1500 0.0000 0.0083 0.0488 0.0567 0.0000 0.0000
        Q-s-low E-s-low   Q-p-low E-p-low   Q-d-low E-d-low   Q-f-low E-f-low
:EPL002:  0.0308 -1.1238    6.0070 -4.0861    0.0155 -1.0401    0.0030 -1.0604
        Q-s-hi  E-s-hi    Q-p-hi  E-p-hi    Q-d-hi  E-d-hi    Q-f-hi  E-f-hi 
:EPH002:  0.1598 -0.1074    0.2030 -0.0073    0.0982  0.0436    0.0165  0.0603
:VZZ002: EFG INSIDE SPHERE   2 =     0.989242      UP TO R =   1.80000




:POS003: ATOM   -3 X,Y,Z = 0.10979 0.10979 0.10979  MULT= 2  ZZ=  8.000  O 1       

       LMMAX 12
       LM=   0 0  1 0  2 0  3 0  3 3  4 0  4 3  5 0  5 3  6 0  6 3  6 6

:CHA003: TOTAL VALENCE CHARGE INSIDE SPHERE   3 =   4.9344    (RMT=  1.4000 )
:PCS003: PARTIAL CHARGES SPHERE =  3 S,P,D,F,PZ,PXY, D-Z2,D-XY,X2Y2,D-XZ,YZ 
:QTL003: 1.4206 3.5063 0.0066 0.0007 1.1428 2.3635 0.0000 0.0015 0.0010 0.0041 0.0000 0.0000
        Q-s-low E-s-low   Q-p-low E-p-low   Q-d-low E-d-low   Q-f-low E-f-low
:EPL003:  1.3778 -1.0653    0.0063 -1.2619    0.0002 -2.6377    0.0001 -2.4329
        Q-s-hi  E-s-hi    Q-p-hi  E-p-hi    Q-d-hi  E-d-hi    Q-f-hi  E-f-hi 
:EPH003:  0.0427 -0.0475    3.5000  0.0212    0.0063  0.1973    0.0006  0.2447
:VZZ003: EFG INSIDE SPHERE   3 =     2.679249      UP TO R =   1.40000

:CHA  : TOTAL VALENCE CHARGE INSIDE UNIT CELL =      38.000000

:SUM  : SUM OF EIGENVALUES =         -53.208855508


        1.ATOM      Cu1                   5 CORE STATES
:1S 001: 1S                -649.686858698 Ry
:2S 001: 2S                 -77.411190639 Ry
:2PP001: 2P*                -67.725166028 Ry
:2P 001: 2P                 -66.219261605 Ry
:3S 001: 3S                  -7.759299395 Ry

        2.ATOM      Al1                   2 CORE STATES
:1S 002: 1S                -110.033569737 Ry
:2S 002: 2S                  -6.935528854 Ry

        3.ATOM      O 1                   1 CORE STATES
       CORE-FORCE in mRy/a.u. = |F|      Fx             Fy             Fz
:FCO003:   3.ATOM    152.521411980      0.000000000      0.000000000    152.521411980

:1S 003: 1S                 -36.937975115 Ry
:CINT001 Core Integral Atom   1   11.998548
:CINT002 Core Integral Atom   2    3.995903
:CINT003 Core Integral Atom   3    1.999999

       DENSITY AT NUCLEUS
        JATOM        VALENCE       SEMI-CORE          CORE           TOTAL
:RTO001:   1        6.115274        0.000000    22630.580222    22636.695497
:RTO002:   2        2.389797        0.000000     1486.759753     1489.149549
:RTO003:   3       15.518730        0.000000      303.953978      319.472709
     
       CHARGES OF NEW CHARGE DENSITY
:NTO   : INTERSTITIAL CHARGE =     6.161383
:NTO001: CHARGE SPHERE  1    =    27.430080
:NTO002: CHARGE SPHERE  2    =    10.534270
:NTO003: CHARGE SPHERE  3    =     6.934351

:NEC01: NUCLEAR AND ELECTRONIC CHARGE     58.00000    57.99444
     
       CHARGES OF OLD CHARGE DENSITY
:OTO   : INTERSTITIAL CHARGE =     7.134597
:OTO001: CHARGE SPHERE  1    =    27.288616
:OTO002: CHARGE SPHERE  2    =    10.832290
:OTO003: CHARGE SPHERE  3    =     6.372248

:NEC02: NUCLEAR AND ELECTRONIC CHARGE     58.00000    58.00000
     
       CONVERGENCE TEST
:DTO001: DIFFERENCE IN SPHERE  1 =  0.4993831
:DTO002: DIFFERENCE IN SPHERE  2 =  0.2754835
:DTO003: DIFFERENCE IN SPHERE  3 =  0.7091041

:DIS  :  CHARGE DISTANCE       ( 0.7091041 for atom    3 spin 1)      0.5482687
:BIG check (qbig,qrms,qtot)    0.236D+00   0.408D+00   0.548D+00
 
******************************************************
* MULTISECANT MIXING VER6 RELEASE 6.0 OPTIONS        *
* Standard Mode with controls                        *
* Regularization       1.000E-06                     *
* Trust Region Control Active                        *
* Max Number of Memory Steps    8                    *
******************************************************
 
:PLANE:  INTERSTITIAL TOTAL      1.69128 DISTAN  2.405E+01 % 
:CHARG:  CLM CHARGE   /ATOM     54.21355 DISTAN  1.583E+00 % 
:REDuction and DMIX in Broyd:    0.8279    0.1656
 
 Step History DMIX, Red, Pred, Trust, FRMS, FABS
  2  3.5000E-02  1.0000E+00  1.0000E+00  1.0000E+00
  
:DIRM :  MEMORY  1/ 8 RESCALES   6.45
:MIX  :   PRATT  REGULARIZATION: 1.00E-06  GREED: 0.088  Expand 2.50  0.09                
     
       CHARGES OF MIXED CHARGE DENSITY
:CTO   : INTERSTITIAL CHARGE =     7.040170
:CTO001: CHARGE SPHERE  1    =    27.302694
:CTO002: CHARGE SPHERE  2    =    10.804287
:CTO003: CHARGE SPHERE  3    =     6.426425

:NEC03: NUCLEAR AND ELECTRONIC CHARGE     58.00000    58.00000

PW CHANGE     H    K    L       Current     Change     Residue
:PTO001:      0    0    0  6.78550323E-02 -2.933E-05 -8.702E-05
:PTO002:     -1   -1   -1 -1.84495666E-02 -5.016E-04 -5.286E-03
:PTO003:     -2   -2   -2 -2.80846709E-03 -5.331E-04 -5.651E-03
:PTO004:     -1    0    0  1.12405770E-01  2.223E-03  2.390E-02
:PTO005:     -1   -1    0  6.60331555E-02  2.637E-04  2.817E-03
:PTO006:     -2   -1   -1 -5.48493373E-02 -2.559E-03 -2.759E-02
:PTO007:     -2   -2   -1 -6.67026079E-02 -2.288E-03 -2.458E-02
:PTO008:     -3   -3   -3  3.04735838E-02  7.140E-04  7.701E-03
:PTO009:     -3   -2   -2  1.84881299E-02  3.260E-04  3.516E-03
:PTO010:     -3   -3   -2  5.41859378E-02  1.231E-03  1.306E-02
:PTO011:     -1    0    1  4.72321018E-02  8.040E-04  8.221E-03
:PTO012:     -4   -4   -4 -2.51828184E-03 -2.621E-04 -2.857E-03

:ENE  : ********** TOTAL ENERGY IN Ry =        -4097.19322697

       TOTAL FORCE IN mRy/a.u. = |F|     Fx             Fy             Fz     with/without FOR in case.in2
:FOR001:   1.ATOM          0.000          0.000          0.000          0.000 partial forces
:FOR002:   2.ATOM          0.000          0.000          0.000          0.000 partial forces
:FOR003:   3.ATOM        444.841          0.000          0.000       -444.841 partial forces
       TOTAL FORCE WITH RESPECT TO GLOBAL CARTESIAN COORDINATES:
:FCA001:   1.ATOM                         0.000          0.000          0.000 partial forces
:FCA002:   2.ATOM                         0.000          0.000          0.000 partial forces
:FCA003:   3.ATOM                         0.000          0.000       -444.841 partial forces
       TOTAL FORCE WITH RESPECT TO THE GLOBAL COORDINATE SYSTEM:
:FGL001:   1.ATOM                 0.000000000     0.000000000     0.000000000 partial forces
:FGL002:   2.ATOM                 0.000000000     0.000000000     0.000000000 partial forces
:FGL003:   3.ATOM              -444.840704367  -444.840704367  -444.840704367 partial forces


            ---------
:ITE003:  3. ITERATION
            ---------

:NATO :    3 INDEPENDENT AND    4 TOTAL ATOMS IN UNITCELL
       SUBSTANCE: CuAlO2 BenkoF84                                             

       LATTICE                      = R   
:POT  : POTENTIAL OPTION EX_PBE EC_PBE VX_PBE VC_PBE
:LAT  : LATTICE CONSTANTS=  5.40508  5.40508 32.03482
:VOL  : UNIT CELL VOLUME =     270.16967
       MODE OF CALCULATION IS       = RELA
       NON-SPINPOLARIZED CALCULATION
:IFFT  : FFT-parameters:   90   90   90 Factor: 2.00
       ATOMNUMBER=  1 Cu1        VCOUL-ZERO =  0.39164E+00
:EFG001:                        EFG         =    -0.49763   *10**21  V / m**2
                               V20  TOT/SRF=    -0.43096     0.27021
                               V22  TOT/SRF=     0.00000     0.00000
                               V22M TOT/SRF=     0.00000     0.00000
                               V21  TOT/SRF=     0.00000     0.00000
                               V21M TOT/SRF=     0.00000     0.00000

              0.24882    0.00000    0.00000        0.24882    0.00000    0.00000
              0.00000    0.24882    0.00000        0.00000    0.24882    0.00000
              0.00000    0.00000   -0.49763        0.00000    0.00000   -0.49763

         MAIN DIRECTIONS OF THE EFG   1.0000  0.0000  0.0000
                                      0.0000  1.0000  0.0000
                                      0.0000  0.0000  1.0000
:ANG001:  ANGLE WITH OLD X-AXIS =         0.0

:ETA001:                         ASYMM. ETA =     0.00000


       ATOMNUMBER=  2 Al1        VCOUL-ZERO = -0.81906E-01
:EFG002:                        EFG         =     0.00057   *10**21  V / m**2
                               V20  TOT/SRF=     0.00049    -0.15756
                               V22  TOT/SRF=     0.00000     0.00000
                               V22M TOT/SRF=     0.00000     0.00000
                               V21  TOT/SRF=     0.00000     0.00000
                               V21M TOT/SRF=     0.00000     0.00000

             -0.00028    0.00000    0.00000       -0.00028    0.00000    0.00000
              0.00000   -0.00028    0.00000        0.00000   -0.00028    0.00000
              0.00000    0.00000    0.00057        0.00000    0.00000    0.00057

         MAIN DIRECTIONS OF THE EFG   1.0000  0.0000  0.0000
                                      0.0000  1.0000  0.0000
                                      0.0000  0.0000  1.0000
:ANG002:  ANGLE WITH OLD X-AXIS =         0.0

:ETA002:                         ASYMM. ETA =     0.00000


       ATOMNUMBER=  3 O 1        VCOUL-ZERO =  0.61531E-01
:EFG003:                        EFG         =     0.56696   *10**21  V / m**2
                               V20  TOT/SRF=     0.49101     0.26866
                               V22  TOT/SRF=     0.00000     0.00000
                               V22M TOT/SRF=     0.00000     0.00000
                               V21  TOT/SRF=     0.00000     0.00000
                               V21M TOT/SRF=     0.00000     0.00000

             -0.28348    0.00000    0.00000       -0.28348    0.00000    0.00000
              0.00000   -0.28348    0.00000        0.00000   -0.28348    0.00000
              0.00000    0.00000    0.56696        0.00000    0.00000    0.56696

         MAIN DIRECTIONS OF THE EFG   1.0000  0.0000  0.0000
                                      0.0000  1.0000  0.0000
                                      0.0000  0.0000  1.0000
:ANG003:  ANGLE WITH OLD X-AXIS =         0.0

:ETA003:                         ASYMM. ETA =     0.00000


     HELLMANN-FEYNMAN-FORCE IN mRy/a.u. = |F|  Fx       Fy             Fz
:FHF001:   1.ATOM      0.000000000      0.000000000      0.000000000      0.000000000

     HELLMANN-FEYNMAN-FORCE IN mRy/a.u. = |F|  Fx       Fy             Fz
:FHF002:   2.ATOM      0.000000000      0.000000000      0.000000000      0.000000000

     HELLMANN-FEYNMAN-FORCE IN mRy/a.u. = |F|  Fx       Fy             Fz
:FHF003:   3.ATOM    508.860700483      0.000000000      0.000000000   -508.860700483

:FIT001: LUSE= 13 SIGMA OF V-XC FIT FOR ATOM  1  0.7438260E-02
:FIT001: LUSE= 13 SIGMA OF V-XC FIT FOR ATOM  1  0.7438260E-02
:FIT002: LUSE= 13 SIGMA OF V-XC FIT FOR ATOM  2  0.4765475E-02
:FIT002: LUSE= 13 SIGMA OF V-XC FIT FOR ATOM  2  0.4765475E-02
:FIT003: LUSE= 13 SIGMA OF V-XC FIT FOR ATOM  3  0.6280387E-04
:FIT003: LUSE= 13 SIGMA OF V-XC FIT FOR ATOM  3  0.6280387E-04
:DEN  : DENSITY INTEGRAL  =         -1793.93393836   (Ry)
       ELS_POTENTIAL_AT Z=0 and Z=0.5:   0.00000   0.00000
       ELS_POTENTIAL_AT Y=0 and Y=0.5:   0.00000   0.00000
:VZERO:v0,v0c,v0x  -0.82450   0.00000  -0.82450 v5,v5c,v5x  -0.82450   0.00000  -0.82450
:VZERY:v0,v0c,v0x  -0.82450   0.00000  -0.82450 v5,v5c,v5x  -0.82450   0.00000  -0.82450
:VZERX:v0,v0c,v0x  -2.43108  -1.20729  -1.22379 v5,v5c,v5x  -0.03830   0.39719  -0.43548

          ATOMIC SPHERE DEPENDENT PARAMETERS FOR ATOM  Cu1       
:e__0001: OVERALL ENERGY PARAMETER IS    0.2459
          OVERALL BASIS SET ON ATOM IS LAPW
:E1_0001: E( 1)=    0.2459
             APW+lo
:E1_0001: E( 1)=   -4.6122   E(BOTTOM)=   -4.679   E(TOP)=   -4.546  1  2   175
             LOCAL ORBITAL
:E2_0001: E( 2)=    0.3168   E(BOTTOM)=   -0.009   E(TOP)=    0.643  0  1   138
             APW+lo
:E0_0001: E( 0)=    0.2459
             APW+lo

          ATOMIC SPHERE DEPENDENT PARAMETERS FOR ATOM  Al1       
:e__0002: OVERALL ENERGY PARAMETER IS    0.2459
          OVERALL BASIS SET ON ATOM IS LAPW
:E1_0002: E( 1)=    0.2459
             APW+lo
:E1_0002: E( 1)=   -4.1450   E(BOTTOM)=   -4.250   E(TOP)=   -4.040  0  1   163
             LOCAL ORBITAL
:E0_0002: E( 0)=    0.2459
             APW+lo

          ATOMIC SPHERE DEPENDENT PARAMETERS FOR ATOM  O 1       
:e__0003: OVERALL ENERGY PARAMETER IS    0.2459
          OVERALL BASIS SET ON ATOM IS LAPW
:E0_0003: E( 0)=   -1.5500   E(BOTTOM)=   -2.722   E(TOP)= -200.000  1 -1   238
             APW+lo
:E0_0003: E( 0)=    0.6459
             LOCAL ORBITAL
:E1_0003: E( 1)=    0.2459
             APW+lo

       K=   0.00000   0.00000   0.00000            1
:RKM  : MATRIX SIZE   846LOs:  29  RKM= 7.91  WEIGHT= 1.00  PGR:    
       EIGENVALUES ARE:
:EIG00001:      -4.6027653   -4.5948188   -4.5948188   -4.1197686   -4.1197686
:EIG00006:      -4.1165868   -1.1406605   -0.9965005   -0.1676663    0.1227318
:EIG00011:       0.1227318    0.1267609    0.1952366    0.1952366    0.2288928
:EIG00016:       0.3527264    0.3527264    0.3944061    0.3944061    0.6042050
:EIG00021:       0.9208661    0.9808568    1.3536932    1.5009579    1.5009579
:EIG00026:       1.5798407    1.6010668    1.6010668    1.9008911
       ********************************************************

:KPT   :      NUMBER OF K-POINTS:    13
       Insulator, EF-inconsistency corrected
:GAP  :    0.1351 Ry =     1.837 eV   (provided you have a proper k-mesh)
         Bandranges (emin - emax) and occupancy:
:BAN00009:   9   -0.167666   -0.083892  2.00000000
:BAN00010:  10   -0.124621    0.122732  2.00000000
:BAN00011:  11   -0.048253    0.136180  2.00000000
:BAN00012:  12    0.060506    0.136180  2.00000000
:BAN00013:  13    0.084427    0.195237  2.00000000
:BAN00014:  14    0.104786    0.195237  2.00000000
:BAN00015:  15    0.228893    0.338226  2.00000000
:BAN00016:  16    0.350345    0.362453  2.00000000
:BAN00017:  17    0.352726    0.396061  2.00000000
:BAN00018:  18    0.377239    0.404838  2.00000000
:BAN00019:  19    0.389141    0.469152  2.00000000
:BAN00020:  20    0.604205    0.762600  0.00000000
:BAN00021:  21    0.791553    1.095877  0.00000000
:BAN00022:  22    0.980857    1.148377  0.00000000
:BAN00023:  23    1.118284    1.356937  0.00000000
:BAN00024:  24    1.245302    1.503827  0.00000000
        Energy to separate low and high energystates:   -0.21767


:NOE  : NUMBER OF ELECTRONS          =  38.000

:FER  : F E R M I - ENERGY(TETRAH.M.)=   0.4691524327
:GMA  : POTENTIAL AND CHARGE CUT-OFF  12.00 Ry**.5




:POS001: ATOM   -1 X,Y,Z = 0.00000 0.00000 0.00000  MULT= 1  ZZ= 29.000  Cu1       

       LMMAX  7
       LM=   0 0  2 0  4 0  4 3  6 0  6 3  6 6

:CHA001: TOTAL VALENCE CHARGE INSIDE SPHERE   1 =  15.3971    (RMT=  2.0000 )
:PCS001: PARTIAL CHARGES SPHERE =  1 S,P,D,F,PZ,PXY, D-Z2,D-XY,X2Y2,D-XZ,YZ 
:QTL001: 0.2352 6.1307 9.0076 0.0175 2.0979 4.0328 0.0000 1.6186 3.6529 3.7362 0.0000 0.0000
        Q-s-low E-s-low   Q-p-low E-p-low   Q-d-low E-d-low   Q-f-low E-f-low
:EPL001:  0.0144 -1.0224    6.0000 -4.5881    0.0178 -1.0205    0.0027 -1.0207
        Q-s-hi  E-s-hi    Q-p-hi  E-p-hi    Q-d-hi  E-d-hi    Q-f-hi  E-f-hi 
:EPH001:  0.2208  0.1670    0.1308  0.1032    8.9899  0.3546    0.0148  0.0803
:VZZ001: EFG INSIDE SPHERE   1 =    -4.572654      UP TO R =   2.00000




:POS002: ATOM   -2 X,Y,Z = 0.50000 0.50000 0.50000  MULT= 1  ZZ= 13.000  Al1       

       LMMAX  7
       LM=   0 0  2 0  4 0  4 3  6 0  6 3  6 6

:CHA002: TOTAL VALENCE CHARGE INSIDE SPHERE   2 =   6.5659    (RMT=  1.8000 )
:PCS002: PARTIAL CHARGES SPHERE =  2 S,P,D,F,PZ,PXY, D-Z2,D-XY,X2Y2,D-XZ,YZ 
:QTL002: 0.2004 6.2227 0.1185 0.0198 2.0644 4.1583 0.0000 0.0087 0.0506 0.0591 0.0000 0.0000
        Q-s-low E-s-low   Q-p-low E-p-low   Q-d-low E-d-low   Q-f-low E-f-low
:EPL002:  0.0324 -1.0822    6.0089 -4.0992    0.0159 -0.9956    0.0030 -1.0162
        Q-s-hi  E-s-hi    Q-p-hi  E-p-hi    Q-d-hi  E-d-hi    Q-f-hi  E-f-hi 
:EPH002:  0.1680 -0.0730    0.2138  0.0316    0.1026  0.0842    0.0168  0.1008
:VZZ002: EFG INSIDE SPHERE   2 =     1.045064      UP TO R =   1.80000




:POS003: ATOM   -3 X,Y,Z = 0.10979 0.10979 0.10979  MULT= 2  ZZ=  8.000  O 1       

       LMMAX 12
       LM=   0 0  1 0  2 0  3 0  3 3  4 0  4 3  5 0  5 3  6 0  6 3  6 6

:CHA003: TOTAL VALENCE CHARGE INSIDE SPHERE   3 =   4.8446    (RMT=  1.4000 )
:PCS003: PARTIAL CHARGES SPHERE =  3 S,P,D,F,PZ,PXY, D-Z2,D-XY,X2Y2,D-XZ,YZ 
:QTL003: 1.4096 3.4274 0.0067 0.0007 1.1144 2.3130 0.0000 0.0015 0.0010 0.0042 0.0000 0.0000
        Q-s-low E-s-low   Q-p-low E-p-low   Q-d-low E-d-low   Q-f-low E-f-low
:EPL003:  1.3642 -1.0217    0.0061 -1.2256    0.0003 -2.5749    0.0001 -2.3777
        Q-s-hi  E-s-hi    Q-p-hi  E-p-hi    Q-d-hi  E-d-hi    Q-f-hi  E-f-hi 
:EPH003:  0.0454 -0.0145    3.4213  0.0613    0.0065  0.2233    0.0006  0.2680
:VZZ003: EFG INSIDE SPHERE   3 =     2.841050      UP TO R =   1.40000

:CHA  : TOTAL VALENCE CHARGE INSIDE UNIT CELL =      38.000000

:SUM  : SUM OF EIGENVALUES =         -52.313452026


        1.ATOM      Cu1                   5 CORE STATES
:1S 001: 1S                -649.639344239 Ry
:2S 001: 2S                 -77.363244298 Ry
:2PP001: 2P*                -67.676825549 Ry
:2P 001: 2P                 -66.170963872 Ry
:3S 001: 3S                  -7.731500189 Ry

        2.ATOM      Al1                   2 CORE STATES
:1S 002: 1S                -110.055543805 Ry
:2S 002: 2S                  -6.949482216 Ry

        3.ATOM      O 1                   1 CORE STATES
       CORE-FORCE in mRy/a.u. = |F|      Fx             Fy             Fz
:FCO003:   3.ATOM    133.466669873      0.000000000      0.000000000    133.466669873

:1S 003: 1S                 -36.840239470 Ry
:CINT001 Core Integral Atom   1   11.998525
:CINT002 Core Integral Atom   2    3.995936
:CINT003 Core Integral Atom   3    1.999999

       DENSITY AT NUCLEUS
        JATOM        VALENCE       SEMI-CORE          CORE           TOTAL
:RTO001:   1        6.656914        0.000000    22630.060545    22636.717459
:RTO002:   2        2.520304        0.000000     1486.842599     1489.362903
:RTO003:   3       15.295986        0.000000      303.916780      319.212766
     
       CHARGES OF NEW CHARGE DENSITY
:NTO   : INTERSTITIAL CHARGE =     6.347753
:NTO001: CHARGE SPHERE  1    =    27.395663
:NTO002: CHARGE SPHERE  2    =    10.561862
:NTO003: CHARGE SPHERE  3    =     6.844584

:NEC01: NUCLEAR AND ELECTRONIC CHARGE     58.00000    57.99445
     
       CHARGES OF OLD CHARGE DENSITY
:OTO   : INTERSTITIAL CHARGE =     7.040170
:OTO001: CHARGE SPHERE  1    =    27.302694
:OTO002: CHARGE SPHERE  2    =    10.804287
:OTO003: CHARGE SPHERE  3    =     6.426425

:NEC02: NUCLEAR AND ELECTRONIC CHARGE     58.00000    58.00000
     
       CONVERGENCE TEST
:DTO001: DIFFERENCE IN SPHERE  1 =  0.2951715
:DTO002: DIFFERENCE IN SPHERE  2 =  0.2243771
:DTO003: DIFFERENCE IN SPHERE  3 =  0.5091033

:DIS  :  CHARGE DISTANCE       ( 0.5091033 for atom    3 spin 1)      0.3844388
:BIG check (qbig,qrms,qtot)    0.170D+00   0.286D+00   0.384D+00
 
******************************************************
* MULTISECANT MIXING VER6 RELEASE 6.0 OPTIONS        *
* Standard Mode with controls                        *
* Regularization       1.000E-06                     *
* Trust Region Control Active                        *
* Max Number of Memory Steps    8                    *
******************************************************
 
:PLANE:  INTERSTITIAL TOTAL      1.71400 DISTAN  2.005E+01 % 
:CHARG:  CLM CHARGE   /ATOM     54.22918 DISTAN  1.196E+00 % 
:REDuction and DMIX in Broyd:    0.9308    0.1862
 
 Step History DMIX, Red, Pred, Trust, FRMS, FABS
  2  3.5000E-02  1.0000E+00  1.0000E+00  1.0000E+00
  3  8.7500E-02  1.0000E+00  1.0000E+00  1.0000E+00
  
:NORMS:  Nuclear, Spectral, Froebius, Shanno-Pua   0.2493E+01  0.2488E+01  0.2488E+01  0.3607E+00
:INFO :  Number of Memory Steps    2 Skipping    0
:INFO :  SLambda=    2.4925080  Max    2.4925080

Eigenvalues, unscaled except for SY+YY
   #     SY Real        SY Imag          SS             YY         SY+YY Real      SY+YY Imag
   1   7.214733E-01   0.000000E+00   3.229926E-01   1.999995E+00   3.798273E+00   0.000000E+00
   2   0.000000E+00   0.000000E+00  -1.387779E-16   5.482016E-06   5.392406E-06   0.000000E+00
 
:INFO :  Singular value   3.798E+00 Weight  1.0000E+00 Projections  -5.758E+01  1.917E+00
:INFO :  Singular value   5.392E-06 Weight  8.7907E-01 Projections   5.487E+01  7.951E+01
 
:DIRM :  MEMORY 2/8 RESCALE   6.18 RED 0.800 PRED 1.000 NEXT 0.621
:INFO :  Blimit    1.533E+00  1.002E+00  6.483E-01  2.598E+00
:DIRP :  |MSR1|= 8.774E-01 |PRATT|= 2.123E+00 ANGLE=   0.9 DEGREES
:DIRQ :  |MSR1|= 8.291E-01 |PRATT|= 1.946E+00 ANGLE=   3.4 DEGREES
:DIR  :  |MSR1|= 1.207E+00 |PRATT|= 2.880E+00 ANGLE=   2.6 DEGREES
:MIX  :   MSE1   REGULARIZATION: 2.00E-06  GREED: 0.097  Newton 1.00  0.42                
     
       CHARGES OF MIXED CHARGE DENSITY
:CTO   : INTERSTITIAL CHARGE =     6.742020
:CTO001: CHARGE SPHERE  1    =    27.343367
:CTO002: CHARGE SPHERE  2    =    10.703059
:CTO003: CHARGE SPHERE  3    =     6.605777

:NEC03: NUCLEAR AND ELECTRONIC CHARGE     58.00000    58.00000

PW CHANGE     H    K    L       Current     Change     Residue
:PTO001:      0    0    0  6.80001212E-02  1.451E-04  5.417E-04
:PTO002:     -1   -1   -1 -2.02363475E-02 -1.787E-03 -4.134E-03
:PTO003:     -2   -2   -2 -4.72657715E-03 -1.918E-03 -4.524E-03
:PTO004:     -1    0    0  1.20731233E-01  8.325E-03  2.011E-02
:PTO005:     -1   -1    0  6.69552175E-02  9.221E-04  2.350E-03
:PTO006:     -2   -1   -1 -6.45458481E-02 -9.697E-03 -2.337E-02
:PTO007:     -2   -2   -1 -7.52480590E-02 -8.545E-03 -2.061E-02
:PTO008:     -3   -3   -3  3.31619523E-02  2.688E-03  6.548E-03
:PTO009:     -3   -2   -2  1.97023597E-02  1.214E-03  2.997E-03
:PTO010:     -3   -3   -2  5.85555556E-02  4.370E-03  1.054E-02
:PTO011:     -1    0    1  4.97216000E-02  2.489E-03  5.807E-03
:PTO012:     -4   -4   -4 -3.54199853E-03 -1.024E-03 -2.510E-03

:ENE  : ********** TOTAL ENERGY IN Ry =        -4097.12408435

       TOTAL FORCE IN mRy/a.u. = |F|     Fx             Fy             Fz     with/without FOR in case.in2
:FOR001:   1.ATOM          0.000          0.000          0.000          0.000 partial forces
:FOR002:   2.ATOM          0.000          0.000          0.000          0.000 partial forces
:FOR003:   3.ATOM        375.394          0.000          0.000       -375.394 partial forces
       TOTAL FORCE WITH RESPECT TO GLOBAL CARTESIAN COORDINATES:
:FCA001:   1.ATOM                         0.000          0.000          0.000 partial forces
:FCA002:   2.ATOM                         0.000          0.000          0.000 partial forces
:FCA003:   3.ATOM                         0.000          0.000       -375.394 partial forces
       TOTAL FORCE WITH RESPECT TO THE GLOBAL COORDINATE SYSTEM:
:FGL001:   1.ATOM                 0.000000000     0.000000000     0.000000000 partial forces
:FGL002:   2.ATOM                 0.000000000     0.000000000     0.000000000 partial forces
:FGL003:   3.ATOM              -375.394030610  -375.394030610  -375.394030610 partial forces


            ---------
:ITE004:  4. ITERATION
            ---------

:NATO :    3 INDEPENDENT AND    4 TOTAL ATOMS IN UNITCELL
       SUBSTANCE: CuAlO2 BenkoF84                                             

       LATTICE                      = R   
:POT  : POTENTIAL OPTION EX_PBE EC_PBE VX_PBE VC_PBE
:LAT  : LATTICE CONSTANTS=  5.40508  5.40508 32.03482
:VOL  : UNIT CELL VOLUME =     270.16967
       MODE OF CALCULATION IS       = RELA
       NON-SPINPOLARIZED CALCULATION
:IFFT  : FFT-parameters:   90   90   90 Factor: 2.00
       ATOMNUMBER=  1 Cu1        VCOUL-ZERO =  0.35424E+00
:EFG001:                        EFG         =    -2.15376   *10**21  V / m**2
                               V20  TOT/SRF=    -1.86521     0.12404
                               V22  TOT/SRF=     0.00000     0.00000
                               V22M TOT/SRF=     0.00000     0.00000
                               V21  TOT/SRF=     0.00000     0.00000
                               V21M TOT/SRF=     0.00000     0.00000

              1.07688    0.00000    0.00000        1.07688    0.00000    0.00000
              0.00000    1.07688    0.00000        0.00000    1.07688    0.00000
              0.00000    0.00000   -2.15376        0.00000    0.00000   -2.15376

         MAIN DIRECTIONS OF THE EFG   1.0000  0.0000  0.0000
                                      0.0000  1.0000  0.0000
                                      0.0000  0.0000  1.0000
:ANG001:  ANGLE WITH OLD X-AXIS =         0.0

:ETA001:                         ASYMM. ETA =     0.00000


       ATOMNUMBER=  2 Al1        VCOUL-ZERO = -0.77427E-01
:EFG002:                        EFG         =     0.44575   *10**21  V / m**2
                               V20  TOT/SRF=     0.38603    -0.05583
                               V22  TOT/SRF=     0.00000     0.00000
                               V22M TOT/SRF=     0.00000     0.00000
                               V21  TOT/SRF=     0.00000     0.00000
                               V21M TOT/SRF=     0.00000     0.00000

             -0.22288    0.00000    0.00000       -0.22288    0.00000    0.00000
              0.00000   -0.22288    0.00000        0.00000   -0.22288    0.00000
              0.00000    0.00000    0.44575        0.00000    0.00000    0.44575

         MAIN DIRECTIONS OF THE EFG   1.0000  0.0000  0.0000
                                      0.0000  1.0000  0.0000
                                      0.0000  0.0000  1.0000
:ANG002:  ANGLE WITH OLD X-AXIS =         0.0

:ETA002:                         ASYMM. ETA =     0.00000


       ATOMNUMBER=  3 O 1        VCOUL-ZERO =  0.17357E+00
:EFG003:                        EFG         =     1.56889   *10**21  V / m**2
                               V20  TOT/SRF=     1.35870     0.26309
                               V22  TOT/SRF=     0.00000     0.00000
                               V22M TOT/SRF=     0.00000     0.00000
                               V21  TOT/SRF=     0.00000     0.00000
                               V21M TOT/SRF=     0.00000     0.00000

             -0.78445    0.00000    0.00000       -0.78445    0.00000    0.00000
              0.00000   -0.78445    0.00000        0.00000   -0.78445    0.00000
              0.00000    0.00000    1.56889        0.00000    0.00000    1.56889

         MAIN DIRECTIONS OF THE EFG   1.0000  0.0000  0.0000
                                      0.0000  1.0000  0.0000
                                      0.0000  0.0000  1.0000
:ANG003:  ANGLE WITH OLD X-AXIS =         0.0

:ETA003:                         ASYMM. ETA =     0.00000


     HELLMANN-FEYNMAN-FORCE IN mRy/a.u. = |F|  Fx       Fy             Fz
:FHF001:   1.ATOM      0.000000000      0.000000000      0.000000000      0.000000000

     HELLMANN-FEYNMAN-FORCE IN mRy/a.u. = |F|  Fx       Fy             Fz
:FHF002:   2.ATOM      0.000000000      0.000000000      0.000000000      0.000000000

     HELLMANN-FEYNMAN-FORCE IN mRy/a.u. = |F|  Fx       Fy             Fz
:FHF003:   3.ATOM    169.036889714      0.000000000      0.000000000   -169.036889714

:FIT001: LUSE= 13 SIGMA OF V-XC FIT FOR ATOM  1  0.6973719E-02
:FIT001: LUSE= 13 SIGMA OF V-XC FIT FOR ATOM  1  0.6973719E-02
:FIT002: LUSE= 13 SIGMA OF V-XC FIT FOR ATOM  2  0.4683299E-02
:FIT002: LUSE= 13 SIGMA OF V-XC FIT FOR ATOM  2  0.4683299E-02
:FIT003: LUSE= 13 SIGMA OF V-XC FIT FOR ATOM  3  0.1055801E-03
:FIT003: LUSE= 13 SIGMA OF V-XC FIT FOR ATOM  3  0.1055801E-03
:DEN  : DENSITY INTEGRAL  =         -1798.52616135   (Ry)
       ELS_POTENTIAL_AT Z=0 and Z=0.5:   0.00000   0.00000
       ELS_POTENTIAL_AT Y=0 and Y=0.5:   0.00000   0.00000
:VZERO:v0,v0c,v0x  -0.80925   0.00000  -0.80925 v5,v5c,v5x  -0.80925   0.00000  -0.80925
:VZERY:v0,v0c,v0x  -0.80925   0.00000  -0.80925 v5,v5c,v5x  -0.80925   0.00000  -0.80925
:VZERX:v0,v0c,v0x  -2.33584  -1.10251  -1.23333 v5,v5c,v5x  -0.09670   0.28605  -0.38274

          ATOMIC SPHERE DEPENDENT PARAMETERS FOR ATOM  Cu1       
:e__0001: OVERALL ENERGY PARAMETER IS    0.2692
          OVERALL BASIS SET ON ATOM IS LAPW
:E1_0001: E( 1)=    0.2692
             APW+lo
:E1_0001: E( 1)=   -4.5548   E(BOTTOM)=   -4.624   E(TOP)=   -4.486  1  2   177
             LOCAL ORBITAL
:E2_0001: E( 2)=    0.3604   E(BOTTOM)=    0.021   E(TOP)=    0.699  0  1   133
             APW+lo
:E0_0001: E( 0)=    0.2692
             APW+lo

          ATOMIC SPHERE DEPENDENT PARAMETERS FOR ATOM  Al1       
:e__0002: OVERALL ENERGY PARAMETER IS    0.2692
          OVERALL BASIS SET ON ATOM IS LAPW
:E1_0002: E( 1)=    0.2692
             APW+lo
:E1_0002: E( 1)=   -4.1895   E(BOTTOM)=   -4.292   E(TOP)=   -4.087  0  1   164
             LOCAL ORBITAL
:E0_0002: E( 0)=    0.2692
             APW+lo

          ATOMIC SPHERE DEPENDENT PARAMETERS FOR ATOM  O 1       
:e__0003: OVERALL ENERGY PARAMETER IS    0.2692
          OVERALL BASIS SET ON ATOM IS LAPW
:E0_0003: E( 0)=   -1.5500   E(BOTTOM)=   -2.552   E(TOP)= -200.000  1 -1   229
             APW+lo
:E0_0003: E( 0)=    0.6692
             LOCAL ORBITAL
:E1_0003: E( 1)=    0.2692
             APW+lo

       K=   0.00000   0.00000   0.00000            1
:RKM  : MATRIX SIZE   846LOs:  29  RKM= 7.91  WEIGHT= 1.00  PGR:    
       EIGENVALUES ARE:
:EIG00001:      -4.5428841   -4.5378752   -4.5378752   -4.1640908   -4.1637260
:EIG00006:      -4.1637260   -1.0113043   -0.8533736   -0.0772985    0.2331828
:EIG00011:       0.2567779    0.2567779    0.2635201    0.3463175    0.3463175
:EIG00016:       0.3892128    0.3892128    0.4530528    0.4530528    0.6683139
:EIG00021:       0.9668605    1.0525288    1.3751890    1.5333658    1.5333658
:EIG00026:       1.6388912    1.6388912    1.6428612    1.8859959    1.9633761
:EIG00031:       1.9633761
       ********************************************************

:KPT   :      NUMBER OF K-POINTS:    13
       Insulator, EF-inconsistency corrected
:GAP  :    0.1409 Ry =     1.916 eV   (provided you have a proper k-mesh)
         Bandranges (emin - emax) and occupancy:
:BAN00009:   9   -0.077298    0.025982  2.00000000
:BAN00010:  10   -0.022459    0.233183  2.00000000
:BAN00011:  11    0.058525    0.256778  2.00000000
:BAN00012:  12    0.179442    0.281696  2.00000000
:BAN00013:  13    0.203603    0.294282  2.00000000
:BAN00014:  14    0.229659    0.346318  2.00000000
:BAN00015:  15    0.304792    0.374935  2.00000000
:BAN00016:  16    0.389213    0.415760  2.00000000
:BAN00017:  17    0.389213    0.447468  2.00000000
:BAN00018:  18    0.423491    0.471436  2.00000000
:BAN00019:  19    0.444805    0.527425  2.00000000
:BAN00020:  20    0.668314    0.795237  0.00000000
:BAN00021:  21    0.848144    1.097849  0.00000000
:BAN00022:  22    1.044191    1.231997  0.00000000
:BAN00023:  23    1.144152    1.421357  0.00000000
:BAN00024:  24    1.286239    1.537347  0.00000000
        Energy to separate low and high energystates:   -0.12730


:NOE  : NUMBER OF ELECTRONS          =  38.000

:FER  : F E R M I - ENERGY(TETRAH.M.)=   0.5274247717
:GMA  : POTENTIAL AND CHARGE CUT-OFF  12.00 Ry**.5




:POS001: ATOM   -1 X,Y,Z = 0.00000 0.00000 0.00000  MULT= 1  ZZ= 29.000  Cu1       

       LMMAX  7
       LM=   0 0  2 0  4 0  4 3  6 0  6 3  6 6

:CHA001: TOTAL VALENCE CHARGE INSIDE SPHERE   1 =  15.3490    (RMT=  2.0000 )
:PCS001: PARTIAL CHARGES SPHERE =  1 S,P,D,F,PZ,PXY, D-Z2,D-XY,X2Y2,D-XZ,YZ 
:QTL001: 0.2913 6.1633 8.8708 0.0180 2.1133 4.0500 0.0000 1.5456 3.6099 3.7153 0.0000 0.0000
        Q-s-low E-s-low   Q-p-low E-p-low   Q-d-low E-d-low   Q-f-low E-f-low
:EPL001:  0.0180 -0.8784    6.0018 -4.5284    0.0206 -0.8758    0.0028 -0.8709
        Q-s-hi  E-s-hi    Q-p-hi  E-p-hi    Q-d-hi  E-d-hi    Q-f-hi  E-f-hi 
:EPH001:  0.2733  0.2352    0.1615  0.2134    8.8502  0.3946    0.0152  0.2120
:VZZ001: EFG INSIDE SPHERE   1 =    -5.359258      UP TO R =   2.00000




:POS002: ATOM   -2 X,Y,Z = 0.50000 0.50000 0.50000  MULT= 1  ZZ= 13.000  Al1       

       LMMAX  7
       LM=   0 0  2 0  4 0  4 3  6 0  6 3  6 6

:CHA002: TOTAL VALENCE CHARGE INSIDE SPHERE   2 =   6.6601    (RMT=  1.8000 )
:PCS002: PARTIAL CHARGES SPHERE =  2 S,P,D,F,PZ,PXY, D-Z2,D-XY,X2Y2,D-XZ,YZ 
:QTL002: 0.2338 6.2670 0.1344 0.0205 2.0802 4.1868 0.0000 0.0101 0.0566 0.0677 0.0000 0.0000
        Q-s-low E-s-low   Q-p-low E-p-low   Q-d-low E-d-low   Q-f-low E-f-low
:EPL002:  0.0383 -0.9446    6.0153 -4.1403    0.0172 -0.8479    0.0030 -0.8702
        Q-s-hi  E-s-hi    Q-p-hi  E-p-hi    Q-d-hi  E-d-hi    Q-f-hi  E-f-hi 
:EPH002:  0.1955  0.0376    0.2517  0.1581    0.1172  0.2163    0.0175  0.2316
:VZZ002: EFG INSIDE SPHERE   2 =     1.172746      UP TO R =   1.80000




:POS003: ATOM   -3 X,Y,Z = 0.10979 0.10979 0.10979  MULT= 2  ZZ=  8.000  O 1       

       LMMAX 12
       LM=   0 0  1 0  2 0  3 0  3 3  4 0  4 3  5 0  5 3  6 0  6 3  6 6

:CHA003: TOTAL VALENCE CHARGE INSIDE SPHERE   3 =   4.5326    (RMT=  1.4000 )
:PCS003: PARTIAL CHARGES SPHERE =  3 S,P,D,F,PZ,PXY, D-Z2,D-XY,X2Y2,D-XZ,YZ 
:QTL003: 1.3718 3.1526 0.0072 0.0008 1.0132 2.1394 0.0000 0.0015 0.0013 0.0044 0.0000 0.0000
        Q-s-low E-s-low   Q-p-low E-p-low   Q-d-low E-d-low   Q-f-low E-f-low
:EPL003:  1.3163 -0.8774    0.0053 -1.1077    0.0003 -2.3520    0.0001 -2.1883
        Q-s-hi  E-s-hi    Q-p-hi  E-p-hi    Q-d-hi  E-d-hi    Q-f-hi  E-f-hi 
:EPH003:  0.0556  0.0944    3.1474  0.1913    0.0069  0.2959    0.0007  0.3290
:VZZ003: EFG INSIDE SPHERE   3 =     3.551296      UP TO R =   1.40000

:CHA  : TOTAL VALENCE CHARGE INSIDE UNIT CELL =      38.000000

:SUM  : SUM OF EIGENVALUES =         -49.793516378


        1.ATOM      Cu1                   5 CORE STATES
:1S 001: 1S                -649.548449717 Ry
:2S 001: 2S                 -77.262839759 Ry
:2PP001: 2P*                -67.576653283 Ry
:2P 001: 2P                 -66.070763262 Ry
:3S 001: 3S                  -7.669771337 Ry

        2.ATOM      Al1                   2 CORE STATES
:1S 002: 1S                -110.123775397 Ry
:2S 002: 2S                  -6.994083138 Ry

        3.ATOM      O 1                   1 CORE STATES
       CORE-FORCE in mRy/a.u. = |F|      Fx             Fy             Fz
:FCO003:   3.ATOM     55.037019686      0.000000000      0.000000000     55.037019686

:1S 003: 1S                 -36.525527207 Ry
:CINT001 Core Integral Atom   1   11.998466
:CINT002 Core Integral Atom   2    3.996050
:CINT003 Core Integral Atom   3    1.999999

       DENSITY AT NUCLEUS
        JATOM        VALENCE       SEMI-CORE          CORE           TOTAL
:RTO001:   1        8.390441        0.000000    22629.073681    22637.464122
:RTO002:   2        2.962182        0.000000     1487.106729     1490.068910
:RTO003:   3       14.561937        0.000000      303.821240      318.383177
     
       CHARGES OF NEW CHARGE DENSITY
:NTO   : INTERSTITIAL CHARGE =     6.925628
:NTO001: CHARGE SPHERE  1    =    27.347509
:NTO002: CHARGE SPHERE  2    =    10.656148
:NTO003: CHARGE SPHERE  3    =     6.532609

:NEC01: NUCLEAR AND ELECTRONIC CHARGE     58.00000    57.99450
     
       CHARGES OF OLD CHARGE DENSITY
:OTO   : INTERSTITIAL CHARGE =     6.742020
:OTO001: CHARGE SPHERE  1    =    27.343367
:OTO002: CHARGE SPHERE  2    =    10.703059
:OTO003: CHARGE SPHERE  3    =     6.605777

:NEC02: NUCLEAR AND ELECTRONIC CHARGE     58.00000    58.00000
     
       CONVERGENCE TEST
:DTO001: DIFFERENCE IN SPHERE  1 =  0.3575582
:DTO002: DIFFERENCE IN SPHERE  2 =  0.0894612
:DTO003: DIFFERENCE IN SPHERE  3 =  0.2856988

:DIS  :  CHARGE DISTANCE       ( 0.3575582 for atom    1 spin 1)      0.2546043
:BIG check (qbig,qrms,qtot)    0.119D+00   0.193D+00   0.255D+00
 
******************************************************
* MULTISECANT MIXING VER6 RELEASE 6.0 OPTIONS        *
* Standard Mode with controls                        *
* Regularization       1.000E-06                     *
* Trust Region Control Active                        *
* Max Number of Memory Steps    8                    *
******************************************************
 
:PLANE:  INTERSTITIAL TOTAL      1.80443 DISTAN  7.408E+00 % 
:CHARG:  CLM CHARGE   /ATOM     54.26808 DISTAN  6.983E-01 % 
 
 Step History DMIX, Red, Pred, Trust, FRMS, FABS
  2  3.5000E-02  1.0000E+00  1.0000E+00  1.0000E+00
  3  8.7500E-02  8.0045E-01  1.0000E+00  1.0000E+00
  4  9.7251E-02  1.0000E+00  6.2101E-01  2.5977E+00
  
:NORMS:  Nuclear, Spectral, Froebius, Shanno-Pua   0.2263E+01  0.2250E+01  0.2250E+01  0.3987E+00
:INFO :  Number of Memory Steps    3 Skipping    0
:INFO :  SLambda=    2.2628141  Max    2.2628141

Eigenvalues, unscaled except for SY+YY
   #     SY Real        SY Imag          SS             YY         SY+YY Real      SY+YY Imag
   1   1.195495E+00   0.000000E+00   5.922361E-01   2.998535E+00   5.703674E+00   0.000000E+00
   2  -2.030793E-16   0.000000E+00   9.309765E-17   3.472382E-07   3.567208E-07   0.000000E+00
   3   4.650810E-04   0.000000E+00   1.653810E-04   1.464899E-03   2.560289E-03   0.000000E+00
 
:INFO :  Singular value   5.704E+00 Weight  1.0000E+00 Projections   1.373E+01  9.016E-02
:INFO :  Singular value   2.560E-03 Weight  1.0000E+00 Projections   1.501E+01 -3.417E+01
:INFO :  Singular value   3.567E-07 Weight  1.3955E-02 Projections  -2.867E+01  8.262E+00
 
:DIRM :  MEMORY 3/8 RESCALE   6.69 RED 0.480 PRED 0.621 NEXT 0.703
:INFO :  Blimit    2.079E+00  1.006E+00  7.887E-01  3.173E+00
:DIRP :  |MSR1|= 4.063E-01 |PRATT|= 8.939E-01 ANGLE=   6.7 DEGREES
:DIRQ :  |MSR1|= 3.939E-01 |PRATT|= 1.137E+00 ANGLE=  12.6 DEGREES
:DIR  :  |MSR1|= 5.659E-01 |PRATT|= 1.446E+00 ANGLE=  12.9 DEGREES
:MIX  :   MSE1   REGULARIZATION: 3.00E-06  GREED: 0.118  Newton 1.00  0.39                
     
       CHARGES OF MIXED CHARGE DENSITY
:CTO   : INTERSTITIAL CHARGE =     6.783033
:CTO001: CHARGE SPHERE  1    =    27.351307
:CTO002: CHARGE SPHERE  2    =    10.676840
:CTO003: CHARGE SPHERE  3    =     6.594410

:NEC03: NUCLEAR AND ELECTRONIC CHARGE     58.00000    58.00000

PW CHANGE     H    K    L       Current     Change     Residue
:PTO001:      0    0    0  6.87261683E-02  7.260E-04  2.063E-03
:PTO002:     -1   -1   -1 -2.06226565E-02 -3.863E-04 -2.956E-04
:PTO003:     -2   -2   -2 -5.26423012E-03 -5.377E-04 -8.096E-04
:PTO004:     -1    0    0  1.23681320E-01  2.950E-03  6.033E-03
:PTO005:     -1   -1    0  6.72077330E-02  2.525E-04  8.214E-04
:PTO006:     -2   -1   -1 -6.83209275E-02 -3.775E-03 -7.647E-03
:PTO007:     -2   -2   -1 -7.82984023E-02 -3.050E-03 -6.160E-03
:PTO008:     -3   -3   -3  3.41703408E-02  1.008E-03  2.206E-03
:PTO009:     -3   -2   -2  2.01126048E-02  4.102E-04  9.962E-04
:PTO010:     -3   -3   -2  5.94305123E-02  8.750E-04  1.648E-03
:PTO011:     -1    0    1  4.91155342E-02 -6.061E-04 -1.985E-03
:PTO012:     -4   -4   -4 -4.10013473E-03 -5.581E-04 -1.269E-03

:ENE  : ********** TOTAL ENERGY IN Ry =        -4097.05598487

       TOTAL FORCE IN mRy/a.u. = |F|     Fx             Fy             Fz     with/without FOR in case.in2
:FOR001:   1.ATOM          0.000          0.000          0.000          0.000 partial forces
:FOR002:   2.ATOM          0.000          0.000          0.000          0.000 partial forces
:FOR003:   3.ATOM        114.000          0.000          0.000       -114.000 partial forces
       TOTAL FORCE WITH RESPECT TO GLOBAL CARTESIAN COORDINATES:
:FCA001:   1.ATOM                         0.000          0.000          0.000 partial forces
:FCA002:   2.ATOM                         0.000          0.000          0.000 partial forces
:FCA003:   3.ATOM                         0.000          0.000       -114.000 partial forces
       TOTAL FORCE WITH RESPECT TO THE GLOBAL COORDINATE SYSTEM:
:FGL001:   1.ATOM                 0.000000000     0.000000000     0.000000000 partial forces
:FGL002:   2.ATOM                 0.000000000     0.000000000     0.000000000 partial forces
:FGL003:   3.ATOM              -113.999870028  -113.999870028  -113.999870028 partial forces


            ---------
:ITE005:  5. ITERATION
            ---------

:NATO :    3 INDEPENDENT AND    4 TOTAL ATOMS IN UNITCELL
       SUBSTANCE: CuAlO2 BenkoF84                                             

       LATTICE                      = R   
:POT  : POTENTIAL OPTION EX_PBE EC_PBE VX_PBE VC_PBE
:LAT  : LATTICE CONSTANTS=  5.40508  5.40508 32.03482
:VOL  : UNIT CELL VOLUME =     270.16967
       MODE OF CALCULATION IS       = RELA
       NON-SPINPOLARIZED CALCULATION
:IFFT  : FFT-parameters:   90   90   90 Factor: 2.00
       ATOMNUMBER=  1 Cu1        VCOUL-ZERO =  0.36545E+00
:EFG001:                        EFG         =    -3.40506   *10**21  V / m**2
                               V20  TOT/SRF=    -2.94887     0.13960
                               V22  TOT/SRF=     0.00000     0.00000
                               V22M TOT/SRF=     0.00000     0.00000
                               V21  TOT/SRF=     0.00000     0.00000
                               V21M TOT/SRF=     0.00000     0.00000

              1.70253    0.00000    0.00000        1.70253    0.00000    0.00000
              0.00000    1.70253    0.00000        0.00000    1.70253    0.00000
              0.00000    0.00000   -3.40506        0.00000    0.00000   -3.40506

         MAIN DIRECTIONS OF THE EFG   1.0000  0.0000  0.0000
                                      0.0000  1.0000  0.0000
                                      0.0000  0.0000  1.0000
:ANG001:  ANGLE WITH OLD X-AXIS =         0.0

:ETA001:                         ASYMM. ETA =     0.00000


       ATOMNUMBER=  2 Al1        VCOUL-ZERO = -0.79695E-01
:EFG002:                        EFG         =     0.74066   *10**21  V / m**2
                               V20  TOT/SRF=     0.64143    -0.04171
                               V22  TOT/SRF=     0.00000     0.00000
                               V22M TOT/SRF=     0.00000     0.00000
                               V21  TOT/SRF=     0.00000     0.00000
                               V21M TOT/SRF=     0.00000     0.00000

             -0.37033    0.00000    0.00000       -0.37033    0.00000    0.00000
              0.00000   -0.37033    0.00000        0.00000   -0.37033    0.00000
              0.00000    0.00000    0.74066        0.00000    0.00000    0.74066

         MAIN DIRECTIONS OF THE EFG   1.0000  0.0000  0.0000
                                      0.0000  1.0000  0.0000
                                      0.0000  0.0000  1.0000
:ANG002:  ANGLE WITH OLD X-AXIS =         0.0

:ETA002:                         ASYMM. ETA =     0.00000


       ATOMNUMBER=  3 O 1        VCOUL-ZERO =  0.18412E+00
:EFG003:                        EFG         =     2.46521   *10**21  V / m**2
                               V20  TOT/SRF=     2.13494     0.27704
                               V22  TOT/SRF=     0.00000     0.00000
                               V22M TOT/SRF=     0.00000     0.00000
                               V21  TOT/SRF=     0.00000     0.00000
                               V21M TOT/SRF=     0.00000     0.00000

             -1.23261    0.00000    0.00000       -1.23261    0.00000    0.00000
              0.00000   -1.23261    0.00000        0.00000   -1.23261    0.00000
              0.00000    0.00000    2.46521        0.00000    0.00000    2.46521

         MAIN DIRECTIONS OF THE EFG   1.0000  0.0000  0.0000
                                      0.0000  1.0000  0.0000
                                      0.0000  0.0000  1.0000
:ANG003:  ANGLE WITH OLD X-AXIS =         0.0

:ETA003:                         ASYMM. ETA =     0.00000


     HELLMANN-FEYNMAN-FORCE IN mRy/a.u. = |F|  Fx       Fy             Fz
:FHF001:   1.ATOM      0.000000000      0.000000000      0.000000000      0.000000000

     HELLMANN-FEYNMAN-FORCE IN mRy/a.u. = |F|  Fx       Fy             Fz
:FHF002:   2.ATOM      0.000000000      0.000000000      0.000000000      0.000000000

     HELLMANN-FEYNMAN-FORCE IN mRy/a.u. = |F|  Fx       Fy             Fz
:FHF003:   3.ATOM     80.056736586      0.000000000      0.000000000    -80.056736586

:FIT001: LUSE= 13 SIGMA OF V-XC FIT FOR ATOM  1  0.6938395E-02
:FIT001: LUSE= 13 SIGMA OF V-XC FIT FOR ATOM  1  0.6938395E-02
:FIT002: LUSE= 13 SIGMA OF V-XC FIT FOR ATOM  2  0.4925387E-02
:FIT002: LUSE= 13 SIGMA OF V-XC FIT FOR ATOM  2  0.4925387E-02
:FIT003: LUSE= 13 SIGMA OF V-XC FIT FOR ATOM  3  0.1409543E-03
:FIT003: LUSE= 13 SIGMA OF V-XC FIT FOR ATOM  3  0.1409543E-03
:DEN  : DENSITY INTEGRAL  =         -1796.70229906   (Ry)
       ELS_POTENTIAL_AT Z=0 and Z=0.5:   0.00000   0.00000
       ELS_POTENTIAL_AT Y=0 and Y=0.5:   0.00000   0.00000
:VZERO:v0,v0c,v0x  -0.80747   0.00000  -0.80747 v5,v5c,v5x  -0.80747   0.00000  -0.80747
:VZERY:v0,v0c,v0x  -0.80747   0.00000  -0.80747 v5,v5c,v5x  -0.80747   0.00000  -0.80747
:VZERX:v0,v0c,v0x  -2.35184  -1.11689  -1.23495 v5,v5c,v5x  -0.07973   0.28578  -0.36551

          ATOMIC SPHERE DEPENDENT PARAMETERS FOR ATOM  Cu1       
:e__0001: OVERALL ENERGY PARAMETER IS    0.3274
          OVERALL BASIS SET ON ATOM IS LAPW
:E1_0001: E( 1)=    0.3274
             APW+lo
:E1_0001: E( 1)=   -4.5864   E(BOTTOM)=   -4.654   E(TOP)=   -4.519  1  2   179
             LOCAL ORBITAL
:E2_0001: E( 2)=    0.3360   E(BOTTOM)=    0.004   E(TOP)=    0.668  0  1   134
             APW+lo
:E0_0001: E( 0)=    0.3274
             APW+lo

          ATOMIC SPHERE DEPENDENT PARAMETERS FOR ATOM  Al1       
:e__0002: OVERALL ENERGY PARAMETER IS    0.3274
          OVERALL BASIS SET ON ATOM IS LAPW
:E1_0002: E( 1)=    0.3274
             APW+lo
:E1_0002: E( 1)=   -4.1955   E(BOTTOM)=   -4.298   E(TOP)=   -4.093  0  1   158
             LOCAL ORBITAL
:E0_0002: E( 0)=    0.3274
             APW+lo

          ATOMIC SPHERE DEPENDENT PARAMETERS FOR ATOM  O 1       
:e__0003: OVERALL ENERGY PARAMETER IS    0.3274
          OVERALL BASIS SET ON ATOM IS LAPW
:E0_0003: E( 0)=   -1.5500   E(BOTTOM)=   -2.558   E(TOP)= -200.000  1 -1   233
             APW+lo
:E0_0003: E( 0)=    0.7274
             LOCAL ORBITAL
:E1_0003: E( 1)=    0.3274
             APW+lo

       K=   0.00000   0.00000   0.00000            1
:RKM  : MATRIX SIZE   846LOs:  29  RKM= 7.91  WEIGHT= 1.00  PGR:    
       EIGENVALUES ARE:
:EIG00001:      -4.5781607   -4.5679978   -4.5679978   -4.1705013   -4.1695584
:EIG00006:      -4.1695584   -1.0160356   -0.8600899   -0.0812561    0.2255242
:EIG00011:       0.2470692    0.2470692    0.2570986    0.3378704    0.3378704
:EIG00016:       0.3685951    0.3685951    0.4297495    0.4297495    0.6526723
:EIG00021:       0.9682056    1.0512667    1.3793749    1.5352669    1.5352669
:EIG00026:       1.6412265    1.6412265    1.6425662    1.8952093    1.9664196
:EIG00031:       1.9664196
       ********************************************************

:KPT   :      NUMBER OF K-POINTS:    13
       Insulator, EF-inconsistency corrected
:GAP  :    0.1489 Ry =     2.025 eV   (provided you have a proper k-mesh)
         Bandranges (emin - emax) and occupancy:
:BAN00009:   9   -0.081256    0.020461  2.00000000
:BAN00010:  10   -0.027770    0.225524  2.00000000
:BAN00011:  11    0.053175    0.247069  2.00000000
:BAN00012:  12    0.170898    0.274058  2.00000000
:BAN00013:  13    0.197125    0.284202  2.00000000
:BAN00014:  14    0.221741    0.337870  2.00000000
:BAN00015:  15    0.292377    0.356698  2.00000000
:BAN00016:  16    0.368595    0.393481  2.00000000
:BAN00017:  17    0.368595    0.424104  2.00000000
:BAN00018:  18    0.400858    0.449929  2.00000000
:BAN00019:  19    0.421273    0.503772  2.00000000
:BAN00020:  20    0.652672    0.780698  0.00000000
:BAN00021:  21    0.850138    1.099250  0.00000000
:BAN00022:  22    1.046500    1.228911  0.00000000
:BAN00023:  23    1.147637    1.420708  0.00000000
:BAN00024:  24    1.287414    1.538901  0.00000000
        Energy to separate low and high energystates:   -0.13126


:NOE  : NUMBER OF ELECTRONS          =  38.000

:FER  : F E R M I - ENERGY(TETRAH.M.)=   0.5037720592
:GMA  : POTENTIAL AND CHARGE CUT-OFF  12.00 Ry**.5




:POS001: ATOM   -1 X,Y,Z = 0.00000 0.00000 0.00000  MULT= 1  ZZ= 29.000  Cu1       

       LMMAX  7
       LM=   0 0  2 0  4 0  4 3  6 0  6 3  6 6

:CHA001: TOTAL VALENCE CHARGE INSIDE SPHERE   1 =  15.4185    (RMT=  2.0000 )
:PCS001: PARTIAL CHARGES SPHERE =  1 S,P,D,F,PZ,PXY, D-Z2,D-XY,X2Y2,D-XZ,YZ 
:QTL001: 0.2816 6.1575 8.9558 0.0179 2.1121 4.0454 0.0000 1.5910 3.6336 3.7312 0.0000 0.0000
        Q-s-low E-s-low   Q-p-low E-p-low   Q-d-low E-d-low   Q-f-low E-f-low
:EPL001:  0.0179 -0.8850    6.0022 -4.5601    0.0209 -0.8824    0.0028 -0.8783
        Q-s-hi  E-s-hi    Q-p-hi  E-p-hi    Q-d-hi  E-d-hi    Q-f-hi  E-f-hi 
:EPH001:  0.2638  0.2271    0.1553  0.2020    8.9349  0.3724    0.0151  0.2022
:VZZ001: EFG INSIDE SPHERE   1 =    -6.849974      UP TO R =   2.00000




:POS002: ATOM   -2 X,Y,Z = 0.50000 0.50000 0.50000  MULT= 1  ZZ= 13.000  Al1       

       LMMAX  7
       LM=   0 0  2 0  4 0  4 3  6 0  6 3  6 6

:CHA002: TOTAL VALENCE CHARGE INSIDE SPHERE   2 =   6.6525    (RMT=  1.8000 )
:PCS002: PARTIAL CHARGES SPHERE =  2 S,P,D,F,PZ,PXY, D-Z2,D-XY,X2Y2,D-XZ,YZ 
:QTL002: 0.2312 6.2634 0.1330 0.0204 2.0790 4.1844 0.0000 0.0099 0.0561 0.0671 0.0000 0.0000
        Q-s-low E-s-low   Q-p-low E-p-low   Q-d-low E-d-low   Q-f-low E-f-low
:EPL002:  0.0377 -0.9502    6.0148 -4.1466    0.0170 -0.8547    0.0030 -0.8770
        Q-s-hi  E-s-hi    Q-p-hi  E-p-hi    Q-d-hi  E-d-hi    Q-f-hi  E-f-hi 
:EPH002:  0.1935  0.0315    0.2486  0.1514    0.1160  0.2093    0.0175  0.2245
:VZZ002: EFG INSIDE SPHERE   2 =     1.194895      UP TO R =   1.80000




:POS003: ATOM   -3 X,Y,Z = 0.10979 0.10979 0.10979  MULT= 2  ZZ=  8.000  O 1       

       LMMAX 12
       LM=   0 0  1 0  2 0  3 0  3 3  4 0  4 3  5 0  5 3  6 0  6 3  6 6

:CHA003: TOTAL VALENCE CHARGE INSIDE SPHERE   3 =   4.5582    (RMT=  1.4000 )
:PCS003: PARTIAL CHARGES SPHERE =  3 S,P,D,F,PZ,PXY, D-Z2,D-XY,X2Y2,D-XZ,YZ 
:QTL003: 1.3747 3.1756 0.0069 0.0008 1.0213 2.1543 0.0000 0.0015 0.0013 0.0042 0.0000 0.0000
        Q-s-low E-s-low   Q-p-low E-p-low   Q-d-low E-d-low   Q-f-low E-f-low
:EPL003:  1.3206 -0.8839    0.0050 -1.1235    0.0003 -2.3639    0.0001 -2.1932
        Q-s-hi  E-s-hi    Q-p-hi  E-p-hi    Q-d-hi  E-d-hi    Q-f-hi  E-f-hi 
:EPH003:  0.0541  0.0899    3.1706  0.1845    0.0067  0.2788    0.0007  0.3101
:VZZ003: EFG INSIDE SPHERE   3 =     3.520495      UP TO R =   1.40000

:CHA  : TOTAL VALENCE CHARGE INSIDE UNIT CELL =      38.000000

:SUM  : SUM OF EIGENVALUES =         -50.331031582


        1.ATOM      Cu1                   5 CORE STATES
:1S 001: 1S                -649.657921657 Ry
:2S 001: 2S                 -77.353353677 Ry
:2PP001: 2P*                -67.670560769 Ry
:2P 001: 2P                 -66.164294563 Ry
:3S 001: 3S                  -7.703769516 Ry

        2.ATOM      Al1                   2 CORE STATES
:1S 002: 1S                -110.121511784 Ry
:2S 002: 2S                  -7.001011548 Ry

        3.ATOM      O 1                   1 CORE STATES
       CORE-FORCE in mRy/a.u. = |F|      Fx             Fy             Fz
:FCO003:   3.ATOM     20.107524046      0.000000000      0.000000000     20.107524046

:1S 003: 1S                 -36.585673514 Ry
:CINT001 Core Integral Atom   1   11.998499
:CINT002 Core Integral Atom   2    3.996064
:CINT003 Core Integral Atom   3    1.999999

       DENSITY AT NUCLEUS
        JATOM        VALENCE       SEMI-CORE          CORE           TOTAL
:RTO001:   1        8.068846        0.000000    22630.546962    22638.615808
:RTO002:   2        2.925402        0.000000     1487.075636     1490.001038
:RTO003:   3       14.638247        0.000000      303.928072      318.566319
     
       CHARGES OF NEW CHARGE DENSITY
:NTO   : INTERSTITIAL CHARGE =     6.812444
:NTO001: CHARGE SPHERE  1    =    27.417032
:NTO002: CHARGE SPHERE  2    =    10.648605
:NTO003: CHARGE SPHERE  3    =     6.558234

:NEC01: NUCLEAR AND ELECTRONIC CHARGE     58.00000    57.99455
     
       CHARGES OF OLD CHARGE DENSITY
:OTO   : INTERSTITIAL CHARGE =     6.783033
:OTO001: CHARGE SPHERE  1    =    27.351307
:OTO002: CHARGE SPHERE  2    =    10.676840
:OTO003: CHARGE SPHERE  3    =     6.594410

:NEC02: NUCLEAR AND ELECTRONIC CHARGE     58.00000    58.00000
     
       CONVERGENCE TEST
:DTO001: DIFFERENCE IN SPHERE  1 =  0.0722415
:DTO002: DIFFERENCE IN SPHERE  2 =  0.0475895
:DTO003: DIFFERENCE IN SPHERE  3 =  0.1583049

:DIS  :  CHARGE DISTANCE       ( 0.1583049 for atom    3 spin 1)      0.1091102
:BIG check (qbig,qrms,qtot)    0.528D-01   0.849D-01   0.109D+00
 
******************************************************
* MULTISECANT MIXING VER6 RELEASE 6.0 OPTIONS        *
* Standard Mode with controls                        *
* Regularization       1.000E-06                     *
* Trust Region Control Active                        *
* Max Number of Memory Steps    8                    *
******************************************************
 
:PLANE:  INTERSTITIAL TOTAL      1.84092 DISTAN  3.999E+00 % 
:CHARG:  CLM CHARGE   /ATOM     54.23752 DISTAN  3.248E-01 % 
 
 Step History DMIX, Red, Pred, Trust, FRMS, FABS
  2  3.5000E-02  1.0000E+00  1.0000E+00  1.0000E+00
  3  8.7500E-02  8.0045E-01  1.0000E+00  1.0000E+00
  4  9.7251E-02  4.8021E-01  6.2101E-01  2.5977E+00
  5  1.1830E-01  1.0000E+00  7.0325E-01  3.1726E+00
  
:NORMS:  Nuclear, Spectral, Froebius, Shanno-Pua   0.1832E+01  0.1562E+01  0.1704E+01  0.5109E+00
:INFO :  Number of Memory Steps    4 Skipping    0
:INFO :  SLambda=    1.8324643  Max    1.8324643

Eigenvalues, unscaled except for SY+YY
   #     SY Real        SY Imag          SS             YY         SY+YY Real      SY+YY Imag
   1   1.642973E+00   0.000000E+00   1.224833E+00   2.987834E+00   5.887476E+00   0.000000E+00
   2   4.187257E-01   0.000000E+00   1.525026E-01   1.011962E+00   1.890274E+00   0.000000E+00
   3  -8.021462E-18   0.000000E+00   1.214154E-16   3.644368E-07   3.656870E-07   0.000000E+00
   4   4.697802E-05   0.000000E+00   9.782320E-06   2.034412E-04   3.247623E-04   0.000000E+00
 
:INFO :  Singular value   5.888E+00 Weight  1.0000E+00 Projections  -2.147E+01  2.308E-01
:INFO :  Singular value   1.890E+00 Weight  1.0000E+00 Projections  -7.648E+00 -5.051E-01
:INFO :  Singular value   3.248E-04 Weight  9.9992E-01 Projections   2.900E+01 -3.711E+01
:INFO :  Singular value   3.657E-07 Weight  1.4759E-02 Projections  -4.469E+00  1.729E+00
 
:DIRM :  MEMORY 4/8 RESCALE   6.78 RED 0.500 PRED 0.703 NEXT 0.345
:INFO :  Blimit    2.950E+00  1.173E+00  1.000E+00  4.693E+00
:DIRP :  |MSR1|= 6.118E-01 |PRATT|= 4.994E-01 ANGLE=   8.1 DEGREES
:DIRQ :  |MSR1|= 4.739E-01 |PRATT|= 5.286E-01 ANGLE=  28.6 DEGREES
:DIR  :  |MSR1|= 7.739E-01 |PRATT|= 7.272E-01 ANGLE=  21.8 DEGREES
:MIX  :   MSE1   REGULARIZATION: 2.99E-06  GREED: 0.154  Newton 1.00  1.06                
     
       CHARGES OF MIXED CHARGE DENSITY
:CTO   : INTERSTITIAL CHARGE =     6.779421
:CTO001: CHARGE SPHERE  1    =    27.386759
:CTO002: CHARGE SPHERE  2    =    10.632562
:CTO003: CHARGE SPHERE  3    =     6.600629

:NEC03: NUCLEAR AND ELECTRONIC CHARGE     58.00000    58.00000

PW CHANGE     H    K    L       Current     Change     Residue
[...]
:PTO001:      0    0    0  6.95143385E-02  3.641E-10  1.058E-10
:PTO002:     -1   -1   -1 -2.12049864E-02 -2.401E-10 -1.685E-11
:PTO003:     -2   -2   -2 -6.02979975E-03 -4.254E-10 -7.271E-10
:PTO004:     -1    0    0  1.27529922E-01  8.223E-10 -1.200E-09
:PTO005:     -1   -1    0  6.79612920E-02  7.157E-10  3.564E-10
:PTO006:     -2   -1   -1 -7.31802297E-02 -2.012E-09 -1.484E-09
:PTO007:     -2   -2   -1 -8.25849790E-02 -2.871E-09 -3.085E-09
:PTO008:     -3   -3   -3  3.55950734E-02  6.433E-10  3.412E-10
:PTO009:     -3   -2   -2  2.06165942E-02 -5.521E-10 -1.860E-09
:PTO010:     -3   -3   -2  6.08044638E-02  5.446E-10 -9.355E-10
:PTO011:     -1    0    1  4.86459424E-02 -2.082E-11 -1.347E-09
:PTO012:     -4   -4   -4 -4.75053313E-03 -1.650E-10  5.942E-11

:ENE  : ********** TOTAL ENERGY IN Ry =        -4097.04752384

       TOTAL FORCE IN mRy/a.u. = |F|     Fx             Fy             Fz     with/without FOR in case.in2
:FOR001:   1.ATOM          0.000          0.000          0.000          0.000 partial forces
:FOR002:   2.ATOM          0.000          0.000          0.000          0.000 partial forces
:FOR003:   3.ATOM          6.898          0.000          0.000         -6.898 partial forces
       TOTAL FORCE WITH RESPECT TO GLOBAL CARTESIAN COORDINATES:
:FCA001:   1.ATOM                         0.000          0.000          0.000 partial forces
:FCA002:   2.ATOM                         0.000          0.000          0.000 partial forces
:FCA003:   3.ATOM                         0.000          0.000         -6.898 partial forces
       TOTAL FORCE WITH RESPECT TO THE GLOBAL COORDINATE SYSTEM:
:FGL001:   1.ATOM                 0.000000000     0.000000000     0.000000000 partial forces
:FGL002:   2.ATOM                 0.000000000     0.000000000     0.000000000 partial forces
:FGL003:   3.ATOM                -6.898195790    -6.898195790    -6.898195790 partial forces


            ---------
:ITE018: 18. ITERATION
            ---------

:NATO :    3 INDEPENDENT AND    4 TOTAL ATOMS IN UNITCELL
       SUBSTANCE: CuAlO2 BenkoF84                                             

       LATTICE                      = R   
:POT  : POTENTIAL OPTION EX_PBE EC_PBE VX_PBE VC_PBE
:LAT  : LATTICE CONSTANTS=  5.40508  5.40508 32.03482
:VOL  : UNIT CELL VOLUME =     270.16967
       MODE OF CALCULATION IS       = RELA
       NON-SPINPOLARIZED CALCULATION
:IFFT  : FFT-parameters:   90   90   90 Factor: 2.00
       ATOMNUMBER=  1 Cu1        VCOUL-ZERO =  0.38039E+00
:EFG001:                        EFG         =    -5.90125   *10**21  V / m**2
                               V20  TOT/SRF=    -5.11063     0.14464
                               V22  TOT/SRF=     0.00000     0.00000
                               V22M TOT/SRF=     0.00000     0.00000
                               V21  TOT/SRF=     0.00000     0.00000
                               V21M TOT/SRF=     0.00000     0.00000

              2.95063    0.00000    0.00000        2.95063    0.00000    0.00000
              0.00000    2.95063    0.00000        0.00000    2.95063    0.00000
              0.00000    0.00000   -5.90125        0.00000    0.00000   -5.90125

         MAIN DIRECTIONS OF THE EFG   1.0000  0.0000  0.0000
                                      0.0000  1.0000  0.0000
                                      0.0000  0.0000  1.0000
:ANG001:  ANGLE WITH OLD X-AXIS =         0.0

:ETA001:                         ASYMM. ETA =     0.00000


       ATOMNUMBER=  2 Al1        VCOUL-ZERO = -0.85384E-01
:EFG002:                        EFG         =     1.14522   *10**21  V / m**2
                               V20  TOT/SRF=     0.99179    -0.03007
                               V22  TOT/SRF=     0.00000     0.00000
                               V22M TOT/SRF=     0.00000     0.00000
                               V21  TOT/SRF=     0.00000     0.00000
                               V21M TOT/SRF=     0.00000     0.00000

             -0.57261    0.00000    0.00000       -0.57261    0.00000    0.00000
              0.00000   -0.57261    0.00000        0.00000   -0.57261    0.00000
              0.00000    0.00000    1.14522        0.00000    0.00000    1.14522

         MAIN DIRECTIONS OF THE EFG   1.0000  0.0000  0.0000
                                      0.0000  1.0000  0.0000
                                      0.0000  0.0000  1.0000
:ANG002:  ANGLE WITH OLD X-AXIS =         0.0

:ETA002:                         ASYMM. ETA =     0.00000


       ATOMNUMBER=  3 O 1        VCOUL-ZERO =  0.20107E+00
:EFG003:                        EFG         =     3.51694   *10**21  V / m**2
                               V20  TOT/SRF=     3.04576     0.29199
                               V22  TOT/SRF=     0.00000     0.00000
                               V22M TOT/SRF=     0.00000     0.00000
                               V21  TOT/SRF=     0.00000     0.00000
                               V21M TOT/SRF=     0.00000     0.00000

             -1.75847    0.00000    0.00000       -1.75847    0.00000    0.00000
              0.00000   -1.75847    0.00000        0.00000   -1.75847    0.00000
              0.00000    0.00000    3.51694        0.00000    0.00000    3.51694

         MAIN DIRECTIONS OF THE EFG   1.0000  0.0000  0.0000
                                      0.0000  1.0000  0.0000
                                      0.0000  0.0000  1.0000
:ANG003:  ANGLE WITH OLD X-AXIS =         0.0

:ETA003:                         ASYMM. ETA =     0.00000


     HELLMANN-FEYNMAN-FORCE IN mRy/a.u. = |F|  Fx       Fy             Fz
:FHF001:   1.ATOM      0.000000000      0.000000000      0.000000000      0.000000000

     HELLMANN-FEYNMAN-FORCE IN mRy/a.u. = |F|  Fx       Fy             Fz
:FHF002:   2.ATOM      0.000000000      0.000000000      0.000000000      0.000000000

     HELLMANN-FEYNMAN-FORCE IN mRy/a.u. = |F|  Fx       Fy             Fz
:FHF003:   3.ATOM     15.221331000      0.000000000      0.000000000    -15.221331000

:FIT001: LUSE= 13 SIGMA OF V-XC FIT FOR ATOM  1  0.7129647E-02
:FIT001: LUSE= 13 SIGMA OF V-XC FIT FOR ATOM  1  0.7129647E-02
:FIT002: LUSE= 13 SIGMA OF V-XC FIT FOR ATOM  2  0.8359563E-02
:FIT002: LUSE= 13 SIGMA OF V-XC FIT FOR ATOM  2  0.8359563E-02
:FIT003: LUSE= 13 SIGMA OF V-XC FIT FOR ATOM  3  0.2458982E-03
:FIT003: LUSE= 13 SIGMA OF V-XC FIT FOR ATOM  3  0.2458982E-03
:DEN  : DENSITY INTEGRAL  =         -1796.85641591   (Ry)
       ELS_POTENTIAL_AT Z=0 and Z=0.5:   0.00000   0.00000
       ELS_POTENTIAL_AT Y=0 and Y=0.5:   0.00000   0.00000
:VZERO:v0,v0c,v0x  -0.80210   0.00000  -0.80210 v5,v5c,v5x  -0.80210   0.00000  -0.80210
:VZERY:v0,v0c,v0x  -0.80210   0.00000  -0.80210 v5,v5c,v5x  -0.80210   0.00000  -0.80210
:VZERX:v0,v0c,v0x  -2.34782  -1.12135  -1.22648 v5,v5c,v5x  -0.06029   0.27421  -0.33450

          ATOMIC SPHERE DEPENDENT PARAMETERS FOR ATOM  Cu1       
:e__0001: OVERALL ENERGY PARAMETER IS    0.3217
          OVERALL BASIS SET ON ATOM IS LAPW
:E1_0001: E( 1)=    0.3217
             APW+lo
:E1_0001: E( 1)=   -4.5607   E(BOTTOM)=   -4.628   E(TOP)=   -4.493  1  2   181
             LOCAL ORBITAL
:E2_0001: E( 2)=    0.3603   E(BOTTOM)=    0.027   E(TOP)=    0.693  0  1   129
             APW+lo
:E0_0001: E( 0)=    0.3217
             APW+lo

          ATOMIC SPHERE DEPENDENT PARAMETERS FOR ATOM  Al1       
:e__0002: OVERALL ENERGY PARAMETER IS    0.3217
          OVERALL BASIS SET ON ATOM IS LAPW
:E1_0002: E( 1)=    0.3217
             APW+lo
:E1_0002: E( 1)=   -4.2076   E(BOTTOM)=   -4.310   E(TOP)=   -4.106  0  1   158
             LOCAL ORBITAL
:E0_0002: E( 0)=    0.3217
             APW+lo

          ATOMIC SPHERE DEPENDENT PARAMETERS FOR ATOM  O 1       
:e__0003: OVERALL ENERGY PARAMETER IS    0.3217
          OVERALL BASIS SET ON ATOM IS LAPW
:E0_0003: E( 0)=   -1.5500   E(BOTTOM)=   -2.563   E(TOP)= -200.000  1 -1   231
             APW+lo
:E0_0003: E( 0)=    0.7217
             LOCAL ORBITAL
:E1_0003: E( 1)=    0.3217
             APW+lo

       K=   0.00000   0.00000   0.00000            1
:RKM  : MATRIX SIZE   846LOs:  29  RKM= 7.91  WEIGHT= 1.00  PGR:    
       EIGENVALUES ARE:
:EIG00001:      -4.5552274   -4.5409590   -4.5409590   -4.1830992   -4.1816585
:EIG00006:      -4.1816585   -1.0202282   -0.8654724   -0.0808070    0.2425084
:EIG00011:       0.2441856    0.2441856    0.2522533    0.3298417    0.3298417
:EIG00016:       0.3937480    0.3937480    0.4486951    0.4486951    0.6633761
:EIG00021:       0.9726866    1.0535056    1.3875306    1.5364871    1.5364871
:EIG00026:       1.6444044    1.6444044    1.6450612    1.9074718    1.9800784
:EIG00031:       1.9800784
       ********************************************************

:KPT   :      NUMBER OF K-POINTS:    13
       Insulator, EF-inconsistency corrected
:GAP  :    0.1417 Ry =     1.926 eV   (provided you have a proper k-mesh)
         Bandranges (emin - emax) and occupancy:
:BAN00009:   9   -0.080807    0.017601  2.00000000
:BAN00010:  10   -0.028748    0.242508  2.00000000
:BAN00011:  11    0.051166    0.257166  2.00000000
:BAN00012:  12    0.170251    0.266589  2.00000000
:BAN00013:  13    0.194078    0.280940  2.00000000
:BAN00014:  14    0.219469    0.329842  2.00000000
:BAN00015:  15    0.293212    0.379101  2.00000000
:BAN00016:  16    0.393395    0.413365  2.00000000
:BAN00017:  17    0.393748    0.450045  2.00000000
:BAN00018:  18    0.421382    0.464576  2.00000000
:BAN00019:  19    0.441215    0.521722  2.00000000
:BAN00020:  20    0.663376    0.791094  0.00000000
:BAN00021:  21    0.854509    1.112196  0.00000000
:BAN00022:  22    1.051121    1.227045  0.00000000
:BAN00023:  23    1.153220    1.422377  0.00000000
:BAN00024:  24    1.293767    1.540182  0.00000000
        Energy to separate low and high energystates:   -0.13081


:NOE  : NUMBER OF ELECTRONS          =  38.000

:FER  : F E R M I - ENERGY(TETRAH.M.)=   0.5217217975
:GMA  : POTENTIAL AND CHARGE CUT-OFF  12.00 Ry**.5




:POS001: ATOM   -1 X,Y,Z = 0.00000 0.00000 0.00000  MULT= 1  ZZ= 29.000  Cu1       

       LMMAX  7
       LM=   0 0  2 0  4 0  4 3  6 0  6 3  6 6

:CHA001: TOTAL VALENCE CHARGE INSIDE SPHERE   1 =  15.3778    (RMT=  2.0000 )
:PCS001: PARTIAL CHARGES SPHERE =  1 S,P,D,F,PZ,PXY, D-Z2,D-XY,X2Y2,D-XZ,YZ 
:QTL001: 0.2759 6.1544 8.9237 0.0179 2.1095 4.0450 0.0000 1.5761 3.6224 3.7253 0.0000 0.0000
        Q-s-low E-s-low   Q-p-low E-p-low   Q-d-low E-d-low   Q-f-low E-f-low
:EPL001:  0.0174 -0.8904    6.0018 -4.5348    0.0204 -0.8879    0.0028 -0.8849
        Q-s-hi  E-s-hi    Q-p-hi  E-p-hi    Q-d-hi  E-d-hi    Q-f-hi  E-f-hi 
:EPH001:  0.2586  0.2341    0.1526  0.2039    8.9034  0.3958    0.0151  0.1988
:VZZ001: EFG INSIDE SPHERE   1 =    -6.151106      UP TO R =   2.00000




:POS002: ATOM   -2 X,Y,Z = 0.50000 0.50000 0.50000  MULT= 1  ZZ= 13.000  Al1       

       LMMAX  7
       LM=   0 0  2 0  4 0  4 3  6 0  6 3  6 6

:CHA002: TOTAL VALENCE CHARGE INSIDE SPHERE   2 =   6.6490    (RMT=  1.8000 )
:PCS002: PARTIAL CHARGES SPHERE =  2 S,P,D,F,PZ,PXY, D-Z2,D-XY,X2Y2,D-XZ,YZ 
:QTL002: 0.2299 6.2615 0.1326 0.0205 2.0782 4.1833 0.0000 0.0098 0.0559 0.0669 0.0000 0.0000
        Q-s-low E-s-low   Q-p-low E-p-low   Q-d-low E-d-low   Q-f-low E-f-low
:EPL002:  0.0374 -0.9551    6.0147 -4.1590    0.0170 -0.8605    0.0030 -0.8828
        Q-s-hi  E-s-hi    Q-p-hi  E-p-hi    Q-d-hi  E-d-hi    Q-f-hi  E-f-hi 
:EPH002:  0.1925  0.0281    0.2468  0.1468    0.1156  0.2044    0.0175  0.2195
:VZZ002: EFG INSIDE SPHERE   2 =     1.246156      UP TO R =   1.80000




:POS003: ATOM   -3 X,Y,Z = 0.10979 0.10979 0.10979  MULT= 2  ZZ=  8.000  O 1       

       LMMAX 12
       LM=   0 0  1 0  2 0  3 0  3 3  4 0  4 3  5 0  5 3  6 0  6 3  6 6

:CHA003: TOTAL VALENCE CHARGE INSIDE SPHERE   3 =   4.5921    (RMT=  1.4000 )
:PCS003: PARTIAL CHARGES SPHERE =  3 S,P,D,F,PZ,PXY, D-Z2,D-XY,X2Y2,D-XZ,YZ 
:QTL003: 1.3776 3.2066 0.0070 0.0008 1.0353 2.1713 0.0000 0.0015 0.0013 0.0043 0.0000 0.0000
        Q-s-low E-s-low   Q-p-low E-p-low   Q-d-low E-d-low   Q-f-low E-f-low
:EPL003:  1.3245 -0.8894    0.0049 -1.1299    0.0003 -2.3780    0.0001 -2.2137
        Q-s-hi  E-s-hi    Q-p-hi  E-p-hi    Q-d-hi  E-d-hi    Q-f-hi  E-f-hi 
:EPH003:  0.0530  0.0869    3.2017  0.1793    0.0067  0.2903    0.0007  0.3258
:VZZ003: EFG INSIDE SPHERE   3 =     3.190566      UP TO R =   1.40000

:CHA  : TOTAL VALENCE CHARGE INSIDE UNIT CELL =      38.000000

:SUM  : SUM OF EIGENVALUES =         -50.096895315


        1.ATOM      Cu1                   5 CORE STATES
:1S 001: 1S                -649.641377420 Ry
:2S 001: 2S                 -77.332926649 Ry
:2PP001: 2P*                -67.650529803 Ry
:2P 001: 2P                 -66.144210665 Ry
:3S 001: 3S                  -7.677865806 Ry

        2.ATOM      Al1                   2 CORE STATES
:1S 002: 1S                -110.129875903 Ry
:2S 002: 2S                  -7.014051169 Ry

        3.ATOM      O 1                   1 CORE STATES
       CORE-FORCE in mRy/a.u. = |F|      Fx             Fy             Fz
:FCO003:   3.ATOM      8.323053899      0.000000000      0.000000000      8.323053899

:1S 003: 1S                 -36.656029113 Ry
:CINT001 Core Integral Atom   1   11.998493
:CINT002 Core Integral Atom   2    3.996084
:CINT003 Core Integral Atom   3    1.999999

       DENSITY AT NUCLEUS
        JATOM        VALENCE       SEMI-CORE          CORE           TOTAL
:RTO001:   1        7.888979        0.000000    22630.684982    22638.573961
:RTO002:   2        2.909030        0.000000     1487.081766     1489.990796
:RTO003:   3       14.712656        0.000000      304.057025      318.769681
     
       CHARGES OF NEW CHARGE DENSITY
:NTO   : INTERSTITIAL CHARGE =     6.789051
:NTO001: CHARGE SPHERE  1    =    27.376262
:NTO002: CHARGE SPHERE  2    =    10.645047
:NTO003: CHARGE SPHERE  3    =     6.592102

:NEC01: NUCLEAR AND ELECTRONIC CHARGE     58.00000    57.99456
     
       CHARGES OF OLD CHARGE DENSITY
:OTO   : INTERSTITIAL CHARGE =     6.794487
:OTO001: CHARGE SPHERE  1    =    27.376262
:OTO002: CHARGE SPHERE  2    =    10.645047
:OTO003: CHARGE SPHERE  3    =     6.592102

:NEC02: NUCLEAR AND ELECTRONIC CHARGE     58.00000    58.00000
     
       CONVERGENCE TEST
:DTO001: DIFFERENCE IN SPHERE  1 =  0.0000001
:DTO002: DIFFERENCE IN SPHERE  2 =  0.0000000
:DTO003: DIFFERENCE IN SPHERE  3 =  0.0000001

:DIS  :  CHARGE DISTANCE       ( 0.0000001 for atom    1 spin 1)      0.0000001
:BIG check (qbig,qrms,qtot)    0.364D-07   0.521D-07   0.683D-07
 
******************************************************
* MULTISECANT MIXING VER6 RELEASE 6.0 OPTIONS        *
* Standard Mode with controls                        *
* Regularization       1.000E-06                     *
* Trust Region Control Active                        *
* Max Number of Memory Steps    8                    *
******************************************************
 
:PLANE:  INTERSTITIAL TOTAL      1.89162 DISTAN  1.214E-06 % 
:CHARG:  CLM CHARGE   /ATOM     54.22882 DISTAN  1.675E-07 % 
 
 Step History DMIX, Red, Pred, Trust, FRMS, FABS
 11  2.0000E-01  5.2192E-01  6.1803E-01  5.0544E+00
 12  2.0000E-01  3.4974E-01  4.8343E-01  5.1141E+00
 13  2.0000E-01  1.6858E-01  2.2140E-01  5.3531E+00
 14  2.0000E-01  2.9287E-01  6.8527E-01  5.2009E+00
 15  2.0000E-01  4.6617E-01  6.1858E-01  2.6899E+00
 16  2.0000E-01  2.2876E-01  4.9335E-01  5.0298E+00
 17  2.0000E-01  3.5367E-01  4.8529E-01  4.8015E+00
 18  2.0000E-01  1.0000E+00  8.4949E-01  5.1935E+00
  
:NORMS:  Nuclear, Spectral, Froebius, Shanno-Pua   0.1289E+01  0.9799E+00  0.1164E+01  0.8275E+00
:INFO :  Number of Memory Steps    8 Skipping    9
:INFO :  SLambda=    1.3333333  Max    1.3333333

Eigenvalues, unscaled except for SY+YY
   #     SY Real        SY Imag          SS             YY         SY+YY Real      SY+YY Imag
   1   2.509649E+00   0.000000E+00   2.814871E+00   2.702624E+00   6.013044E+00   0.000000E+00
   2   1.580137E+00   0.000000E+00   1.525405E+00   1.859707E+00   3.928575E+00   0.000000E+00
   3   9.573013E-01   0.000000E+00   9.026350E-01   1.258161E+00   2.453999E+00   0.000000E+00
   4   5.341830E-01   0.000000E+00   3.497575E-01   8.565166E-01   1.593411E+00   0.000000E+00
   5   1.117524E-02   0.000000E+00   1.494395E-01   6.872333E-01   1.162423E+00   0.000000E+00
   6   9.252748E-02   0.000000E+00   6.417228E-02   4.951798E-01   8.880964E-01   0.000000E+00
   7   2.957229E-01   0.000000E+00   8.417340E-02   1.563221E-02   3.109549E-02   0.000000E+00
   8   2.612655E-01   0.000000E+00   9.159522E-03   1.249463E-01   2.519715E-01   0.000000E+00
 
:INFO :  Singular value   6.041E+00 Weight  1.0000E+00 Projections  -5.639E-08  5.447E-09
:INFO :  Singular value   3.951E+00 Weight  1.0000E+00 Projections  -2.430E-07 -1.458E-10
:INFO :  Singular value   2.440E+00 Weight  1.0000E+00 Projections   5.662E-08 -2.854E-08
:INFO :  Singular value   1.593E+00 Weight  1.0000E+00 Projections   1.268E-07  5.532E-09
:INFO :  Singular value   1.158E+00 Weight  1.0000E+00 Projections  -1.965E-07 -7.097E-08
:INFO :  Singular value   8.877E-01 Weight  1.0000E+00 Projections  -4.205E-07 -1.880E-07
:INFO :  Singular value   2.519E-01 Weight  1.0000E+00 Projections   1.106E-06 -8.420E-07
:INFO :  Singular value   3.109E-02 Weight  1.0000E+00 Projections  -8.424E-07  1.216E-06
 
:DIRM :  MEMORY 8/8 RESCALE  10.36 RED 0.576 PRED 0.849 NEXT 0.179
:INFO :  Blimit    5.030E+00  1.361E+00  1.000E+00  5.443E+00
:DIRP :  |MSR1|= 2.036E-07 |PRATT|= 2.377E-07 ANGLE=   5.2 DEGREES
:DIRQ :  |MSR1|= 0.000E+00 |PRATT|= 0.000E+00 ANGLE=   0.0 DEGREES
:DIR  :  |MSR1|= 2.987E-07 |PRATT|= 3.616E-07 ANGLE=  10.4 DEGREES
:MIX  :   MSE1   REGULARIZATION: 2.70E-06  GREED: 0.204  Newton 1.00  0.83                
     
       CHARGES OF MIXED CHARGE DENSITY
:CTO   : INTERSTITIAL CHARGE =     6.794487
:CTO001: CHARGE SPHERE  1    =    27.376262
:CTO002: CHARGE SPHERE  2    =    10.645047
:CTO003: CHARGE SPHERE  3    =     6.592102

:NEC03: NUCLEAR AND ELECTRONIC CHARGE     58.00000    58.00000

PW CHANGE     H    K    L       Current     Change     Residue
:PTO001:      0    0    0  6.95143382E-02 -2.524E-10 -3.571E-10
:PTO002:     -1   -1   -1 -2.12049865E-02 -8.559E-11 -1.853E-10
:PTO003:     -2   -2   -2 -6.02979997E-03 -2.299E-10 -2.797E-10
:PTO004:     -1    0    0  1.27529921E-01 -1.211E-09 -1.438E-09
:PTO005:     -1   -1    0  6.79612919E-02 -1.829E-10 -3.156E-10
:PTO006:     -2   -1   -1 -7.31802298E-02 -8.150E-11 -1.367E-10
:PTO007:     -2   -2   -1 -8.25849796E-02 -6.675E-10 -7.502E-10
:PTO008:     -3   -3   -3  3.55950733E-02 -8.293E-11 -1.014E-10
:PTO009:     -3   -2   -2  2.06165934E-02 -8.615E-10 -9.787E-10
:PTO010:     -3   -3   -2  6.08044630E-02 -8.049E-10 -9.170E-10
:PTO011:     -1    0    1  4.86459416E-02 -8.098E-10 -9.088E-10
:PTO012:     -4   -4   -4 -4.75053300E-03  1.307E-10  1.680E-10

:ENE  : ********** TOTAL ENERGY IN Ry =        -4097.04752384

       TOTAL FORCE IN mRy/a.u. = |F|     Fx             Fy             Fz     with/without FOR in case.in2
:FOR001:   1.ATOM          0.000          0.000          0.000          0.000 partial forces
:FOR002:   2.ATOM          0.000          0.000          0.000          0.000 partial forces
:FOR003:   3.ATOM          6.898          0.000          0.000         -6.898 partial forces
       TOTAL FORCE WITH RESPECT TO GLOBAL CARTESIAN COORDINATES:
:FCA001:   1.ATOM                         0.000          0.000          0.000 partial forces
:FCA002:   2.ATOM                         0.000          0.000          0.000 partial forces
:FCA003:   3.ATOM                         0.000          0.000         -6.898 partial forces
       TOTAL FORCE WITH RESPECT TO THE GLOBAL COORDINATE SYSTEM:
:FGL001:   1.ATOM                 0.000000000     0.000000000     0.000000000 partial forces
:FGL002:   2.ATOM                 0.000000000     0.000000000     0.000000000 partial forces
:FGL003:   3.ATOM                -6.898277101    -6.898277101    -6.898277101 partial forces
