
:LABEL1: Calculations in /home/stevezhang/work/CuMO2/convergence/CuInO2/rkmax_8-scfk_6c/CuInO2
:LABEL2: on MZ at Tue Jun 22 14:43:04 CST 2021
:LABEL3: using WIEN2k_14.2 (Release 15/10/2014) in /home/stevezhang/wien2k/v14.2
:LABEL4: using the command: run_lapw -ec 0.000000001


            ---------
:ITE001:  1. ITERATION
            ---------

:NATO :    3 INDEPENDENT AND    4 TOTAL ATOMS IN UNITCELL
       SUBSTANCE: CuInO2 ShimodeM00                                           

       LATTICE                      = R   
:POT  : POTENTIAL OPTION EX_PBE EC_PBE VX_PBE VC_PBE
:LAT  : LATTICE CONSTANTS=  6.22095  6.22095 32.85838
:VOL  : UNIT CELL VOLUME =     367.08653
       MODE OF CALCULATION IS       = RELA
       NON-SPINPOLARIZED CALCULATION
:IFFT  : FFT-parameters:   90   90   90 Factor: 2.00
       ATOMNUMBER=  1 Cu1        VCOUL-ZERO =  0.26652E+00
:EFG001:                        EFG         =     0.18101   *10**21  V / m**2
                               V20  TOT/SRF=     0.15676     0.41496
                               V22  TOT/SRF=     0.00000     0.00000
                               V22M TOT/SRF=     0.00000     0.00000
                               V21  TOT/SRF=     0.00000     0.00000
                               V21M TOT/SRF=     0.00000     0.00000

             -0.09050    0.00000    0.00000       -0.09050    0.00000    0.00000
              0.00000   -0.09050    0.00000        0.00000   -0.09050    0.00000
              0.00000    0.00000    0.18101        0.00000    0.00000    0.18101

         MAIN DIRECTIONS OF THE EFG   1.0000  0.0000  0.0000
                                      0.0000  1.0000  0.0000
                                      0.0000  0.0000  1.0000
:ANG001:  ANGLE WITH OLD X-AXIS =         0.0

:ETA001:                         ASYMM. ETA =     0.00000


       ATOMNUMBER=  2 In1        VCOUL-ZERO =  0.90600E-01
:EFG002:                        EFG         =    -0.05297   *10**21  V / m**2
                               V20  TOT/SRF=    -0.04587    -0.08419
                               V22  TOT/SRF=     0.00000     0.00000
                               V22M TOT/SRF=     0.00000     0.00000
                               V21  TOT/SRF=     0.00000     0.00000
                               V21M TOT/SRF=     0.00000     0.00000

              0.02649    0.00000    0.00000        0.02649    0.00000    0.00000
              0.00000    0.02649    0.00000        0.00000    0.02649    0.00000
              0.00000    0.00000   -0.05297        0.00000    0.00000   -0.05297

         MAIN DIRECTIONS OF THE EFG   1.0000  0.0000  0.0000
                                      0.0000  1.0000  0.0000
                                      0.0000  0.0000  1.0000
:ANG002:  ANGLE WITH OLD X-AXIS =         0.0

:ETA002:                         ASYMM. ETA =     0.00000


       ATOMNUMBER=  3 O 1        VCOUL-ZERO = -0.17430E-01
:EFG003:                        EFG         =     0.36343   *10**21  V / m**2
                               V20  TOT/SRF=     0.31474     0.39264
                               V22  TOT/SRF=     0.00000     0.00000
                               V22M TOT/SRF=     0.00000     0.00000
                               V21  TOT/SRF=     0.00000     0.00000
                               V21M TOT/SRF=     0.00000     0.00000

             -0.18172    0.00000    0.00000       -0.18172    0.00000    0.00000
              0.00000   -0.18172    0.00000        0.00000   -0.18172    0.00000
              0.00000    0.00000    0.36343        0.00000    0.00000    0.36343

         MAIN DIRECTIONS OF THE EFG   1.0000  0.0000  0.0000
                                      0.0000  1.0000  0.0000
                                      0.0000  0.0000  1.0000
:ANG003:  ANGLE WITH OLD X-AXIS =         0.0

:ETA003:                         ASYMM. ETA =     0.00000


     HELLMANN-FEYNMAN-FORCE IN mRy/a.u. = |F|  Fx       Fy             Fz
:FHF001:   1.ATOM      0.000000000      0.000000000      0.000000000      0.000000000

     HELLMANN-FEYNMAN-FORCE IN mRy/a.u. = |F|  Fx       Fy             Fz
:FHF002:   2.ATOM      0.000000000      0.000000000      0.000000000      0.000000000

     HELLMANN-FEYNMAN-FORCE IN mRy/a.u. = |F|  Fx       Fy             Fz
:FHF003:   3.ATOM     11.742760005      0.000000000      0.000000000    -11.742760005

:FIT001: LUSE= 13 SIGMA OF V-XC FIT FOR ATOM  1  0.8226974E-02
:FIT001: LUSE= 13 SIGMA OF V-XC FIT FOR ATOM  1  0.8226974E-02
:FIT002: LUSE= 13 SIGMA OF V-XC FIT FOR ATOM  2  0.7461558E-02
:FIT002: LUSE= 13 SIGMA OF V-XC FIT FOR ATOM  2  0.7461558E-02
:FIT003: LUSE= 13 SIGMA OF V-XC FIT FOR ATOM  3  0.1113757E-03
:FIT003: LUSE= 13 SIGMA OF V-XC FIT FOR ATOM  3  0.1113757E-03
:DEN  : DENSITY INTEGRAL  =         -6248.76281702   (Ry)
       ELS_POTENTIAL_AT Z=0 and Z=0.5:   0.00000   0.00000
       ELS_POTENTIAL_AT Y=0 and Y=0.5:   0.00000   0.00000
:VZERO:v0,v0c,v0x  -0.77412   0.00000  -0.77412 v5,v5c,v5x  -0.77412   0.00000  -0.77412
:VZERY:v0,v0c,v0x  -0.77412   0.00000  -0.77412 v5,v5c,v5x  -0.77412   0.00000  -0.77412
:VZERX:v0,v0c,v0x  -1.86873  -0.81401  -1.05473 v5,v5c,v5x  -0.89893  -0.36299  -0.53595

          ATOMIC SPHERE DEPENDENT PARAMETERS FOR ATOM  Cu1       
:e__0001: OVERALL ENERGY PARAMETER IS    0.3000
          OVERALL BASIS SET ON ATOM IS LAPW
:E1_0001: E( 1)=    0.3000
             APW+lo
:E1_0001: E( 1)=   -4.8037   E(BOTTOM)=   -4.869   E(TOP)=   -4.739  1  2   152
             LOCAL ORBITAL
:E2_0001: E( 2)=    0.1346   E(BOTTOM)=   -0.182   E(TOP)=    0.452  0  1   126
             APW+lo
:E0_0001: E( 0)=    0.3000
             APW+lo

          ATOMIC SPHERE DEPENDENT PARAMETERS FOR ATOM  In1       
:e__0002: OVERALL ENERGY PARAMETER IS    0.3000
          OVERALL BASIS SET ON ATOM IS LAPW
:E2_0002: E( 2)=   -0.5239   E(BOTTOM)=   -0.941   E(TOP)=   -0.107  1  2   153
             APW+lo
:E2_0002: E( 2)=    0.7000
             LOCAL ORBITAL
:E0_0002: E( 0)=    0.3000
             APW+lo
:E1_0002: E( 1)=    0.3000
             APW+lo

          ATOMIC SPHERE DEPENDENT PARAMETERS FOR ATOM  O 1       
:e__0003: OVERALL ENERGY PARAMETER IS    0.3000
          OVERALL BASIS SET ON ATOM IS LAPW
:E0_0003: E( 0)=   -1.5500   E(BOTTOM)=   -2.839   E(TOP)= -200.000  1 -1   243
             APW+lo
:E0_0003: E( 0)=    0.7000
             LOCAL ORBITAL
:E1_0003: E( 1)=    0.3000
             APW+lo

       K=   0.00000   0.00000   0.00000            1
:RKM  : MATRIX SIZE  1213LOs:  36  RKM= 7.97  WEIGHT= 1.00  PGR:    
       EIGENVALUES ARE:
:EIG00001:      -4.7975136   -4.7857977   -4.7857977   -1.1712822   -1.0969748
:EIG00006:      -0.5349384   -0.5349384   -0.5144321   -0.4796982   -0.4796982
:EIG00011:      -0.1963992   -0.0088385    0.0353746    0.0353746    0.0569951
:EIG00016:       0.0569951    0.1494774    0.1834830    0.1834830    0.2342005
:EIG00021:       0.2342005    0.3736935    0.7085334    0.7224569    1.2537224
:EIG00026:       1.2537224    1.2891077    1.4659196    1.4659196    1.5323236
:EIG00031:       1.5379976    1.5379976    1.5396687    1.7184070    1.8390926
:EIG00036:       1.8390926    1.9491039
       ********************************************************

:KPT   :      NUMBER OF K-POINTS:    32
       Insulator, EF-inconsistency corrected
:GAP  :    0.0946 Ry =     1.286 eV   (provided you have a proper k-mesh)
         Bandranges (emin - emax) and occupancy:
:BAN00011:  11   -0.199291   -0.119395  2.00000000
:BAN00012:  12   -0.154132   -0.008838  2.00000000
:BAN00013:  13   -0.091577    0.035375  2.00000000
:BAN00014:  14   -0.054852    0.035375  2.00000000
:BAN00015:  15   -0.027097    0.098492  2.00000000
:BAN00016:  16    0.042215    0.099091  2.00000000
:BAN00017:  17    0.142959    0.188469  2.00000000
:BAN00018:  18    0.183368    0.204638  2.00000000
:BAN00019:  19    0.183368    0.212976  2.00000000
:BAN00020:  20    0.208161    0.237469  2.00000000
:BAN00021:  21    0.220759    0.279099  2.00000000
:BAN00022:  22    0.373693    0.745878  0.00000000
:BAN00023:  23    0.553888    0.746657  0.00000000
:BAN00024:  24    0.722023    0.979716  0.00000000
:BAN00025:  25    0.862133    1.253722  0.00000000
:BAN00026:  26    0.995032    1.253722  0.00000000
        Energy to separate low and high energystates:   -0.24929


:NOE  : NUMBER OF ELECTRONS          =  42.000

:FER  : F E R M I - ENERGY(TETRAH.M.)=   0.2790993791
:GMA  : POTENTIAL AND CHARGE CUT-OFF  12.00 Ry**.5




:POS001: ATOM   -1 X,Y,Z = 0.00000 0.00000 0.00000  MULT= 1  ZZ= 29.000  Cu1       

       LMMAX  7
       LM=   0 0  2 0  4 0  4 3  6 0  6 3  6 6

:CHA001: TOTAL VALENCE CHARGE INSIDE SPHERE   1 =  15.5970    (RMT=  2.0000 )
:PCS001: PARTIAL CHARGES SPHERE =  1 S,P,D,F,PZ,PXY, D-Z2,D-XY,X2Y2,D-XZ,YZ 
:QTL001: 0.2281 6.1256 9.2157 0.0202 2.1083 4.0174 0.0000 1.7171 3.7254 3.7732 0.0000 0.0000
        Q-s-low E-s-low   Q-p-low E-p-low   Q-d-low E-d-low   Q-f-low E-f-low
:EPL001:  0.0252 -0.9641    6.0108 -4.7729    0.0381 -0.9082    0.0045 -1.0141
        Q-s-hi  E-s-hi    Q-p-hi  E-p-hi    Q-d-hi  E-d-hi    Q-f-hi  E-f-hi 
:EPH001:  0.2028  0.0800    0.1148 -0.0196    9.1776  0.1807    0.0157 -0.0212
:VZZ001: EFG INSIDE SPHERE   1 =    -8.597352      UP TO R =   2.00000




:POS002: ATOM   -2 X,Y,Z = 0.50000 0.50000 0.50000  MULT= 1  ZZ= 49.000  In1       

       LMMAX  7
       LM=   0 0  2 0  4 0  4 3  6 0  6 3  6 6

:CHA002: TOTAL VALENCE CHARGE INSIDE SPHERE   2 =   9.9757    (RMT=  2.1300 )
:PCS002: PARTIAL CHARGES SPHERE =  2 S,P,D,F,PZ,PXY, D-Z2,D-XY,X2Y2,D-XZ,YZ 
:QTL002: 0.2331 0.1854 9.5219 0.0285 0.0514 0.1340 0.0000 1.8891 3.8107 3.8220 0.0000 0.0000
        Q-s-low E-s-low   Q-p-low E-p-low   Q-d-low E-d-low   Q-f-low E-f-low
:EPL002:  0.0233 -1.0355    0.0234 -1.0269    8.9336 -0.4979    0.0039 -1.0521
        Q-s-hi  E-s-hi    Q-p-hi  E-p-hi    Q-d-hi  E-d-hi    Q-f-hi  E-f-hi 
:EPH002:  0.2098 -0.1238    0.1620 -0.0386    0.5883 -0.0100    0.0246 -0.0060
:VZZ002: EFG INSIDE SPHERE   2 =     6.983797      UP TO R =   2.13000




:POS003: ATOM   -3 X,Y,Z = 0.10553 0.10553 0.10553  MULT= 2  ZZ=  8.000  O 1       

       LMMAX 12
       LM=   0 0  1 0  2 0  3 0  3 3  4 0  4 3  5 0  5 3  6 0  6 3  6 6

:CHA003: TOTAL VALENCE CHARGE INSIDE SPHERE   3 =   4.9402    (RMT=  1.4000 )
:PCS003: PARTIAL CHARGES SPHERE =  3 S,P,D,F,PZ,PXY, D-Z2,D-XY,X2Y2,D-XZ,YZ 
:QTL003: 1.4377 3.4949 0.0063 0.0010 1.1400 2.3549 0.0000 0.0017 0.0013 0.0033 0.0000 0.0000
        Q-s-low E-s-low   Q-p-low E-p-low   Q-d-low E-d-low   Q-f-low E-f-low
:EPL003:  1.4070 -1.1089    0.1204 -0.5098    0.0020 -0.6528    0.0003 -0.8322
        Q-s-hi  E-s-hi    Q-p-hi  E-p-hi    Q-d-hi  E-d-hi    Q-f-hi  E-f-hi 
:EPH003:  0.0307 -0.0347    3.3745 -0.0146    0.0043  0.1159    0.0007  0.1256
:VZZ003: EFG INSIDE SPHERE   3 =     2.870839      UP TO R =   1.40000

:CHA  : TOTAL VALENCE CHARGE INSIDE UNIT CELL =      42.000000

:SUM  : SUM OF EIGENVALUES =         -36.633565850


        1.ATOM      Cu1                   5 CORE STATES
:1S 001: 1S                -649.863877284 Ry
:2S 001: 2S                 -77.588116534 Ry
:2PP001: 2P*                -67.902310034 Ry
:2P 001: 2P                 -66.396381820 Ry
:3S 001: 3S                  -7.925890335 Ry

        2.ATOM      In1                  12 CORE STATES
:1S 002: 1S               -2037.703695584 Ry
:2S 002: 2S                -304.240952499 Ry
:2PP002: 2P*               -283.650522871 Ry
:2P 002: 2P                -268.151363734 Ry
:3S 002: 3S                 -56.998215224 Ry
:3PP002: 3P*                -48.691098751 Ry
:3P 002: 3P                 -45.891592707 Ry
:3DD002: 3D*                -31.204603613 Ry
:3D 002: 3D                 -30.631081796 Ry
:4S 002: 4S                  -7.886095240 Ry
:4PP002: 4P*                 -5.176329630 Ry
:4P 002: 4P                  -4.688943464 Ry

        3.ATOM      O 1                   1 CORE STATES
       CORE-FORCE in mRy/a.u. = |F|      Fx             Fy             Fz
:FCO003:   3.ATOM      2.176138520      0.000000000      0.000000000      2.176138520

:1S 003: 1S                 -37.051752208 Ry
:CINT001 Core Integral Atom   1   11.998569
:CINT002 Core Integral Atom   2   35.973592
:CINT003 Core Integral Atom   3    1.999999

       DENSITY AT NUCLEUS
        JATOM        VALENCE       SEMI-CORE          CORE           TOTAL
:RTO001:   1        6.442557        0.000000    22630.879190    22637.321747
:RTO002:   2       25.294865        0.000000   236274.441163   236299.736028
:RTO003:   3       15.873195        0.000000      303.985750      319.858945
     
       CHARGES OF NEW CHARGE DENSITY
:NTO   : INTERSTITIAL CHARGE =     6.546852
:NTO001: CHARGE SPHERE  1    =    27.595577
:NTO002: CHARGE SPHERE  2    =    45.949334
:NTO003: CHARGE SPHERE  3    =     6.940186

:NEC01: NUCLEAR AND ELECTRONIC CHARGE     94.00000    93.97214
     
       CHARGES OF OLD CHARGE DENSITY
:OTO   : INTERSTITIAL CHARGE =     7.702035
:OTO001: CHARGE SPHERE  1    =    27.242587
:OTO002: CHARGE SPHERE  2    =    46.476123
:OTO003: CHARGE SPHERE  3    =     6.290331

:NEC02: NUCLEAR AND ELECTRONIC CHARGE     94.00000    94.00141
     
       CONVERGENCE TEST
:DTO001: DIFFERENCE IN SPHERE  1 =  0.8211293
:DTO002: DIFFERENCE IN SPHERE  2 =  0.3473313
:DTO003: DIFFERENCE IN SPHERE  3 =  0.8238133

:DIS  :  CHARGE DISTANCE       ( 0.8238133 for atom    3 spin 1)      0.7040218
:BIG check (qbig,qrms,qtot)    0.275D+00   0.519D+00   0.704D+00
 
******************************************************
* MULTISECANT MIXING VER6 RELEASE 6.0 OPTIONS        *
* Standard Mode with controls                        *
* Regularization       1.000E-06                     *
* Trust Region Control Active                        *
* Max Number of Memory Steps    8                    *
******************************************************
 
:PLANE:  INTERSTITIAL TOTAL      1.90148 DISTAN  3.071E+01 % 
:CHARG:  CLM CHARGE   /ATOM    107.20616 DISTAN  9.731E-01 % 
:REDuction and DMIX in Broyd:    0.7446    0.1489
:DIRM :  MEMORY  0/ 8 RESCALES   1.00
:MIX  :   PRATT  REGULARIZATION: 1.00E-06  GREED: 0.035
     
       CHARGES OF MIXED CHARGE DENSITY
:CTO   : INTERSTITIAL CHARGE =     7.661222
:CTO001: CHARGE SPHERE  1    =    27.254941
:CTO002: CHARGE SPHERE  2    =    46.457685
:CTO003: CHARGE SPHERE  3    =     6.313076

:NEC03: NUCLEAR AND ELECTRONIC CHARGE     94.00000    94.00000

PW CHANGE     H    K    L       Current     Change     Residue
:PTO001:      0    0    0  6.18984189E-02 -1.000E-04 -2.857E-03
:PTO002:     -1   -1   -1 -3.03071700E-02  7.573E-05  2.164E-03
:PTO003:     -2   -2   -2  7.34953362E-03 -3.913E-04 -1.118E-02
:PTO004:     -1    0    0  5.83181158E-02  1.248E-03  3.566E-02
:PTO005:     -1   -1    0  1.01599786E-01 -2.769E-04 -7.913E-03
:PTO006:     -2   -1   -1 -8.32593396E-03 -1.184E-03 -3.384E-02
:PTO007:     -2   -2   -1 -8.19247207E-02 -4.378E-04 -1.251E-02
:PTO008:     -3   -3   -3  1.61001566E-02  3.164E-04  9.040E-03
:PTO009:     -3   -2   -2 -1.03840805E-02  2.647E-04  7.564E-03
:PTO010:     -3   -3   -2  5.22230963E-02  6.158E-05  1.760E-03
:PTO011:     -1    0    1  6.32313906E-02  1.801E-04  5.147E-03
:PTO012:     -2   -1    0 -3.65622116E-02 -3.863E-06 -1.104E-04

:ENE  : ********** TOTAL ENERGY IN Ry =       -15377.97563180

       TOTAL FORCE IN mRy/a.u. = |F|     Fx             Fy             Fz     with/without FOR in case.in2
:FOR001:   1.ATOM          0.000          0.000          0.000          0.000 partial forces
:FOR002:   2.ATOM          0.000          0.000          0.000          0.000 partial forces
:FOR003:   3.ATOM          9.567          0.000          0.000         -9.567 partial forces
       TOTAL FORCE WITH RESPECT TO GLOBAL CARTESIAN COORDINATES:
:FCA001:   1.ATOM                         0.000          0.000          0.000 partial forces
:FCA002:   2.ATOM                         0.000          0.000          0.000 partial forces
:FCA003:   3.ATOM                         0.000          0.000         -9.567 partial forces
       TOTAL FORCE WITH RESPECT TO THE GLOBAL COORDINATE SYSTEM:
:FGL001:   1.ATOM                 0.000000000     0.000000000     0.000000000 partial forces
:FGL002:   2.ATOM                 0.000000000     0.000000000     0.000000000 partial forces
:FGL003:   3.ATOM                -9.566621485    -9.566621485    -9.566621485 partial forces


            ---------
:ITE002:  2. ITERATION
            ---------

:NATO :    3 INDEPENDENT AND    4 TOTAL ATOMS IN UNITCELL
       SUBSTANCE: CuInO2 ShimodeM00                                           

       LATTICE                      = R   
:POT  : POTENTIAL OPTION EX_PBE EC_PBE VX_PBE VC_PBE
:LAT  : LATTICE CONSTANTS=  6.22095  6.22095 32.85838
:VOL  : UNIT CELL VOLUME =     367.08653
       MODE OF CALCULATION IS       = RELA
       NON-SPINPOLARIZED CALCULATION
:IFFT  : FFT-parameters:   90   90   90 Factor: 2.00
       ATOMNUMBER=  1 Cu1        VCOUL-ZERO =  0.26993E+00
:EFG001:                        EFG         =    -0.12764   *10**21  V / m**2
                               V20  TOT/SRF=    -0.11054     0.39446
                               V22  TOT/SRF=     0.00000     0.00000
                               V22M TOT/SRF=     0.00000     0.00000
                               V21  TOT/SRF=     0.00000     0.00000
                               V21M TOT/SRF=     0.00000     0.00000

              0.06382    0.00000    0.00000        0.06382    0.00000    0.00000
              0.00000    0.06382    0.00000        0.00000    0.06382    0.00000
              0.00000    0.00000   -0.12764        0.00000    0.00000   -0.12764

         MAIN DIRECTIONS OF THE EFG   1.0000  0.0000  0.0000
                                      0.0000  1.0000  0.0000
                                      0.0000  0.0000  1.0000
:ANG001:  ANGLE WITH OLD X-AXIS =         0.0

:ETA001:                         ASYMM. ETA =     0.00000


       ATOMNUMBER=  2 In1        VCOUL-ZERO =  0.83933E-01
:EFG002:                        EFG         =     0.19311   *10**21  V / m**2
                               V20  TOT/SRF=     0.16724    -0.08034
                               V22  TOT/SRF=     0.00000     0.00000
                               V22M TOT/SRF=     0.00000     0.00000
                               V21  TOT/SRF=     0.00000     0.00000
                               V21M TOT/SRF=     0.00000     0.00000

             -0.09655    0.00000    0.00000       -0.09655    0.00000    0.00000
              0.00000   -0.09655    0.00000        0.00000   -0.09655    0.00000
              0.00000    0.00000    0.19311        0.00000    0.00000    0.19311

         MAIN DIRECTIONS OF THE EFG   1.0000  0.0000  0.0000
                                      0.0000  1.0000  0.0000
                                      0.0000  0.0000  1.0000
:ANG002:  ANGLE WITH OLD X-AXIS =         0.0

:ETA002:                         ASYMM. ETA =     0.00000


       ATOMNUMBER=  3 O 1        VCOUL-ZERO = -0.34696E-02
:EFG003:                        EFG         =     0.46052   *10**21  V / m**2
                               V20  TOT/SRF=     0.39882     0.38609
                               V22  TOT/SRF=     0.00000     0.00000
                               V22M TOT/SRF=     0.00000     0.00000
                               V21  TOT/SRF=     0.00000     0.00000
                               V21M TOT/SRF=     0.00000     0.00000

             -0.23026    0.00000    0.00000       -0.23026    0.00000    0.00000
              0.00000   -0.23026    0.00000        0.00000   -0.23026    0.00000
              0.00000    0.00000    0.46052        0.00000    0.00000    0.46052

         MAIN DIRECTIONS OF THE EFG   1.0000  0.0000  0.0000
                                      0.0000  1.0000  0.0000
                                      0.0000  0.0000  1.0000
:ANG003:  ANGLE WITH OLD X-AXIS =         0.0

:ETA003:                         ASYMM. ETA =     0.00000


     HELLMANN-FEYNMAN-FORCE IN mRy/a.u. = |F|  Fx       Fy             Fz
:FHF001:   1.ATOM      0.000000000      0.000000000      0.000000000      0.000000000

     HELLMANN-FEYNMAN-FORCE IN mRy/a.u. = |F|  Fx       Fy             Fz
:FHF002:   2.ATOM      0.000000000      0.000000000      0.000000000      0.000000000

     HELLMANN-FEYNMAN-FORCE IN mRy/a.u. = |F|  Fx       Fy             Fz
:FHF003:   3.ATOM     25.958676538      0.000000000      0.000000000    -25.958676538

:FIT001: LUSE= 13 SIGMA OF V-XC FIT FOR ATOM  1  0.8158777E-02
:FIT001: LUSE= 13 SIGMA OF V-XC FIT FOR ATOM  1  0.8158777E-02
:FIT002: LUSE= 13 SIGMA OF V-XC FIT FOR ATOM  2  0.7679068E-02
:FIT002: LUSE= 13 SIGMA OF V-XC FIT FOR ATOM  2  0.7679068E-02
:FIT003: LUSE= 13 SIGMA OF V-XC FIT FOR ATOM  3  0.1089092E-03
:FIT003: LUSE= 13 SIGMA OF V-XC FIT FOR ATOM  3  0.1089092E-03
:DEN  : DENSITY INTEGRAL  =         -6249.33488335   (Ry)
       ELS_POTENTIAL_AT Z=0 and Z=0.5:   0.00000   0.00000
       ELS_POTENTIAL_AT Y=0 and Y=0.5:   0.00000   0.00000
:VZERO:v0,v0c,v0x  -0.77232   0.00000  -0.77232 v5,v5c,v5x  -0.77232   0.00000  -0.77232
:VZERY:v0,v0c,v0x  -0.77232   0.00000  -0.77232 v5,v5c,v5x  -0.77232   0.00000  -0.77232
:VZERX:v0,v0c,v0x  -1.85268  -0.79672  -1.05596 v5,v5c,v5x  -0.90825  -0.37818  -0.53007

          ATOMIC SPHERE DEPENDENT PARAMETERS FOR ATOM  Cu1       
:e__0001: OVERALL ENERGY PARAMETER IS    0.1000
          OVERALL BASIS SET ON ATOM IS LAPW
:E1_0001: E( 1)=    0.1000
             APW+lo
:E1_0001: E( 1)=   -4.7782   E(BOTTOM)=   -4.844   E(TOP)=   -4.713  1  2   158
             LOCAL ORBITAL
:E2_0001: E( 2)=    0.1570   E(BOTTOM)=   -0.163   E(TOP)=    0.477  0  1   135
             APW+lo
:E0_0001: E( 0)=    0.1000
             APW+lo

          ATOMIC SPHERE DEPENDENT PARAMETERS FOR ATOM  In1       
:e__0002: OVERALL ENERGY PARAMETER IS    0.1000
          OVERALL BASIS SET ON ATOM IS LAPW
:E2_0002: E( 2)=   -0.5350   E(BOTTOM)=   -0.951   E(TOP)=   -0.119  1  2   147
             APW+lo
:E2_0002: E( 2)=    0.5000
             LOCAL ORBITAL
:E0_0002: E( 0)=    0.1000
             APW+lo
:E1_0002: E( 1)=    0.1000
             APW+lo

          ATOMIC SPHERE DEPENDENT PARAMETERS FOR ATOM  O 1       
:e__0003: OVERALL ENERGY PARAMETER IS    0.1000
          OVERALL BASIS SET ON ATOM IS LAPW
:E0_0003: E( 0)=   -1.5500   E(BOTTOM)=   -2.818   E(TOP)= -200.000  1 -1   243
             APW+lo
:E0_0003: E( 0)=    0.5000
             LOCAL ORBITAL
:E1_0003: E( 1)=    0.1000
             APW+lo

       K=   0.00000   0.00000   0.00000            1
:RKM  : MATRIX SIZE  1213LOs:  36  RKM= 7.97  WEIGHT= 1.00  PGR:    
       EIGENVALUES ARE:
:EIG00001:      -4.7713381   -4.7603975   -4.7603975   -1.1542059   -1.0778030
:EIG00006:      -0.5430259   -0.5430259   -0.5226964   -0.4905302   -0.4905302
:EIG00011:      -0.1839974    0.0101063    0.0538495    0.0538495    0.0741457
:EIG00016:       0.0741457    0.1616457    0.2045083    0.2045083    0.2560112
:EIG00021:       0.2560112    0.3832864    0.7101434    0.7334889    1.2516700
:EIG00026:       1.2516700    1.2913058    1.4718375    1.4718375    1.5343369
:EIG00031:       1.5384643    1.5391917    1.5391917    1.7167911
       ********************************************************

:KPT   :      NUMBER OF K-POINTS:    32
       Insulator, EF-inconsistency corrected
:GAP  :    0.0831 Ry =     1.130 eV   (provided you have a proper k-mesh)
         Bandranges (emin - emax) and occupancy:
:BAN00011:  11   -0.185747   -0.106767  2.00000000
:BAN00012:  12   -0.143243    0.010106  2.00000000
:BAN00013:  13   -0.077065    0.053850  2.00000000
:BAN00014:  14   -0.038718    0.053850  2.00000000
:BAN00015:  15   -0.009882    0.114812  2.00000000
:BAN00016:  16    0.059173    0.115884  2.00000000
:BAN00017:  17    0.155772    0.209374  2.00000000
:BAN00018:  18    0.204388    0.226587  2.00000000
:BAN00019:  19    0.204388    0.234927  2.00000000
:BAN00020:  20    0.230306    0.259502  2.00000000
:BAN00021:  21    0.242708    0.300173  2.00000000
:BAN00022:  22    0.383286    0.750965  0.00000000
:BAN00023:  23    0.570010    0.751808  0.00000000
:BAN00024:  24    0.727194    0.981836  0.00000000
:BAN00025:  25    0.871291    1.251670  0.00000000
:BAN00026:  26    1.000262    1.251670  0.00000000
        Energy to separate low and high energystates:   -0.23575


:NOE  : NUMBER OF ELECTRONS          =  42.000

:FER  : F E R M I - ENERGY(TETRAH.M.)=   0.3001730630
:GMA  : POTENTIAL AND CHARGE CUT-OFF  12.00 Ry**.5




:POS001: ATOM   -1 X,Y,Z = 0.00000 0.00000 0.00000  MULT= 1  ZZ= 29.000  Cu1       

       LMMAX  7
       LM=   0 0  2 0  4 0  4 3  6 0  6 3  6 6

:CHA001: TOTAL VALENCE CHARGE INSIDE SPHERE   1 =  15.5654    (RMT=  2.0000 )
:PCS001: PARTIAL CHARGES SPHERE =  1 S,P,D,F,PZ,PXY, D-Z2,D-XY,X2Y2,D-XZ,YZ 
:QTL001: 0.2355 6.1278 9.1746 0.0201 2.1093 4.0185 0.0000 1.6932 3.7150 3.7663 0.0000 0.0000
        Q-s-low E-s-low   Q-p-low E-p-low   Q-d-low E-d-low   Q-f-low E-f-low
:EPL001:  0.0249 -0.9612    6.0104 -4.7475    0.0363 -0.9148    0.0044 -1.0039
        Q-s-hi  E-s-hi    Q-p-hi  E-p-hi    Q-d-hi  E-d-hi    Q-f-hi  E-f-hi 
:EPH001:  0.2107  0.0970    0.1174 -0.0017    9.1382  0.2019    0.0158 -0.0043
:VZZ001: EFG INSIDE SPHERE   1 =    -8.044057      UP TO R =   2.00000




:POS002: ATOM   -2 X,Y,Z = 0.50000 0.50000 0.50000  MULT= 1  ZZ= 49.000  In1       

       LMMAX  7
       LM=   0 0  2 0  4 0  4 3  6 0  6 3  6 6

:CHA002: TOTAL VALENCE CHARGE INSIDE SPHERE   2 =  10.0003    (RMT=  2.1300 )
:PCS002: PARTIAL CHARGES SPHERE =  2 S,P,D,F,PZ,PXY, D-Z2,D-XY,X2Y2,D-XZ,YZ 
:QTL002: 0.2439 0.1927 9.5279 0.0290 0.0536 0.1391 0.0000 1.8903 3.8132 3.8244 0.0000 0.0000
        Q-s-low E-s-low   Q-p-low E-p-low   Q-d-low E-d-low   Q-f-low E-f-low
:EPL002:  0.0237 -1.0359    0.0239 -1.0189    8.9866 -0.5075    0.0039 -1.0387
        Q-s-hi  E-s-hi    Q-p-hi  E-p-hi    Q-d-hi  E-d-hi    Q-f-hi  E-f-hi 
:EPH002:  0.2202 -0.1115    0.1688 -0.0227    0.5413  0.0073    0.0251  0.0111
:VZZ002: EFG INSIDE SPHERE   2 =     7.179914      UP TO R =   2.13000




:POS003: ATOM   -3 X,Y,Z = 0.10553 0.10553 0.10553  MULT= 2  ZZ=  8.000  O 1       

       LMMAX 12
       LM=   0 0  1 0  2 0  3 0  3 3  4 0  4 3  5 0  5 3  6 0  6 3  6 6

:CHA003: TOTAL VALENCE CHARGE INSIDE SPHERE   3 =   4.8937    (RMT=  1.4000 )
:PCS003: PARTIAL CHARGES SPHERE =  3 S,P,D,F,PZ,PXY, D-Z2,D-XY,X2Y2,D-XZ,YZ 
:QTL003: 1.4331 3.4530 0.0064 0.0010 1.1270 2.3260 0.0000 0.0017 0.0013 0.0034 0.0000 0.0000
        Q-s-low E-s-low   Q-p-low E-p-low   Q-d-low E-d-low   Q-f-low E-f-low
:EPL003:  1.4013 -1.0898    0.1071 -0.5191    0.0020 -0.6619    0.0003 -0.8406
        Q-s-hi  E-s-hi    Q-p-hi  E-p-hi    Q-d-hi  E-d-hi    Q-f-hi  E-f-hi 
:EPH003:  0.0318 -0.0228    3.3459  0.0013    0.0044  0.1368    0.0007  0.1472
:VZZ003: EFG INSIDE SPHERE   3 =     2.741636      UP TO R =   1.40000

:CHA  : TOTAL VALENCE CHARGE INSIDE UNIT CELL =      42.000000

:SUM  : SUM OF EIGENVALUES =         -36.104569464


        1.ATOM      Cu1                   5 CORE STATES
:1S 001: 1S                -649.824705722 Ry
:2S 001: 2S                 -77.549393305 Ry
:2PP001: 2P*                -67.863276270 Ry
:2P 001: 2P                 -66.357382206 Ry
:3S 001: 3S                  -7.899341743 Ry

        2.ATOM      In1                  12 CORE STATES
:1S 002: 1S               -2037.720156390 Ry
:2S 002: 2S                -304.256522079 Ry
:2PP002: 2P*               -283.666229053 Ry
:2P 002: 2P                -268.167030729 Ry
:3S 002: 3S                 -57.012683661 Ry
:3PP002: 3P*                -48.705609075 Ry
:3P 002: 3P                 -45.906054085 Ry
:3DD002: 3D*                -31.219176768 Ry
:3D 002: 3D                 -30.645638902 Ry
:4S 002: 4S                  -7.898588042 Ry
:4PP002: 4P*                 -5.188600840 Ry
:4P 002: 4P                  -4.701088635 Ry

        3.ATOM      O 1                   1 CORE STATES
       CORE-FORCE in mRy/a.u. = |F|      Fx             Fy             Fz
:FCO003:   3.ATOM      3.621096980      0.000000000      0.000000000      3.621096980

:1S 003: 1S                 -37.009973044 Ry
:CINT001 Core Integral Atom   1   11.998555
:CINT002 Core Integral Atom   2   35.973687
:CINT003 Core Integral Atom   3    1.999999

       DENSITY AT NUCLEUS
        JATOM        VALENCE       SEMI-CORE          CORE           TOTAL
:RTO001:   1        6.687289        0.000000    22630.558144    22637.245432
:RTO002:   2       26.669767        0.000000   236274.732553   236301.402319
:RTO003:   3       15.777741        0.000000      303.969192      319.746933
     
       CHARGES OF NEW CHARGE DENSITY
:NTO   : INTERSTITIAL CHARGE =     6.646861
:NTO001: CHARGE SPHERE  1    =    27.563948
:NTO002: CHARGE SPHERE  2    =    45.974030
:NTO003: CHARGE SPHERE  3    =     6.893689

:NEC01: NUCLEAR AND ELECTRONIC CHARGE     94.00000    93.97222
     
       CHARGES OF OLD CHARGE DENSITY
:OTO   : INTERSTITIAL CHARGE =     7.661222
:OTO001: CHARGE SPHERE  1    =    27.254941
:OTO002: CHARGE SPHERE  2    =    46.457685
:OTO003: CHARGE SPHERE  3    =     6.313076

:NEC02: NUCLEAR AND ELECTRONIC CHARGE     94.00000    94.00000
     
       CONVERGENCE TEST
:DTO001: DIFFERENCE IN SPHERE  1 =  0.6779362
:DTO002: DIFFERENCE IN SPHERE  2 =  0.3207780
:DTO003: DIFFERENCE IN SPHERE  3 =  0.7282189

:DIS  :  CHARGE DISTANCE       ( 0.7282189 for atom    3 spin 1)      0.6137880
:BIG check (qbig,qrms,qtot)    0.243D+00   0.450D+00   0.614D+00
 
******************************************************
* MULTISECANT MIXING VER6 RELEASE 6.0 OPTIONS        *
* Standard Mode with controls                        *
* Regularization       1.000E-06                     *
* Trust Region Control Active                        *
* Max Number of Memory Steps    8                    *
******************************************************
 
:PLANE:  INTERSTITIAL TOTAL      1.90511 DISTAN  2.924E+01 % 
:CHARG:  CLM CHARGE   /ATOM    107.20970 DISTAN  8.649E-01 % 
:REDuction and DMIX in Broyd:    0.7913    0.1583
 
 Step History DMIX, Red, Pred, Trust, FRMS, FABS
  2  3.5000E-02  1.0000E+00  1.0000E+00  1.0000E+00
  
:DIRM :  MEMORY  1/ 8 RESCALES   5.17
:MIX  :   PRATT  REGULARIZATION: 1.00E-06  GREED: 0.088  Expand 2.50  0.09                
     
       CHARGES OF MIXED CHARGE DENSITY
:CTO   : INTERSTITIAL CHARGE =     7.562704
:CTO001: CHARGE SPHERE  1    =    27.285828
:CTO002: CHARGE SPHERE  2    =    46.411591
:CTO003: CHARGE SPHERE  3    =     6.369938

:NEC03: NUCLEAR AND ELECTRONIC CHARGE     94.00000    94.00000

PW CHANGE     H    K    L       Current     Change     Residue
:PTO001:      0    0    0  6.16484281E-02 -2.500E-04 -2.557E-03
:PTO002:     -1   -1   -1 -3.01178468E-02  1.893E-04  2.352E-03
:PTO003:     -2   -2   -2  6.37119586E-03 -9.783E-04 -1.053E-02
:PTO004:     -1    0    0  6.14383611E-02  3.120E-03  3.402E-02
:PTO005:     -1   -1    0  1.00907421E-01 -6.924E-04 -7.933E-03
:PTO006:     -2   -1   -1 -1.12867300E-02 -2.961E-03 -3.221E-02
:PTO007:     -2   -2   -1 -8.30193414E-02 -1.095E-03 -1.118E-02
:PTO008:     -3   -3   -3  1.68911476E-02  7.910E-04  8.610E-03
:PTO009:     -3   -2   -2 -9.72227398E-03  6.618E-04  7.558E-03
:PTO010:     -3   -3   -2  5.23770573E-02  1.540E-04  1.233E-03
:PTO011:     -1    0    1  6.36817238E-02  4.503E-04  4.082E-03
:PTO012:     -2   -1    0 -3.65718694E-02 -9.658E-06  4.727E-04

:ENE  : ********** TOTAL ENERGY IN Ry =       -15377.92632045

       TOTAL FORCE IN mRy/a.u. = |F|     Fx             Fy             Fz     with/without FOR in case.in2
:FOR001:   1.ATOM          0.000          0.000          0.000          0.000 partial forces
:FOR002:   2.ATOM          0.000          0.000          0.000          0.000 partial forces
:FOR003:   3.ATOM         22.338          0.000          0.000        -22.338 partial forces
       TOTAL FORCE WITH RESPECT TO GLOBAL CARTESIAN COORDINATES:
:FCA001:   1.ATOM                         0.000          0.000          0.000 partial forces
:FCA002:   2.ATOM                         0.000          0.000          0.000 partial forces
:FCA003:   3.ATOM                         0.000          0.000        -22.338 partial forces
       TOTAL FORCE WITH RESPECT TO THE GLOBAL COORDINATE SYSTEM:
:FGL001:   1.ATOM                 0.000000000     0.000000000     0.000000000 partial forces
:FGL002:   2.ATOM                 0.000000000     0.000000000     0.000000000 partial forces
:FGL003:   3.ATOM               -22.337579558   -22.337579558   -22.337579558 partial forces


            ---------
:ITE003:  3. ITERATION
            ---------

:NATO :    3 INDEPENDENT AND    4 TOTAL ATOMS IN UNITCELL
       SUBSTANCE: CuInO2 ShimodeM00                                           

       LATTICE                      = R   
:POT  : POTENTIAL OPTION EX_PBE EC_PBE VX_PBE VC_PBE
:LAT  : LATTICE CONSTANTS=  6.22095  6.22095 32.85838
:VOL  : UNIT CELL VOLUME =     367.08653
       MODE OF CALCULATION IS       = RELA
       NON-SPINPOLARIZED CALCULATION
:IFFT  : FFT-parameters:   90   90   90 Factor: 2.00
       ATOMNUMBER=  1 Cu1        VCOUL-ZERO =  0.27838E+00
:EFG001:                        EFG         =    -0.89972   *10**21  V / m**2
                               V20  TOT/SRF=    -0.77918     0.34277
                               V22  TOT/SRF=     0.00000     0.00000
                               V22M TOT/SRF=     0.00000     0.00000
                               V21  TOT/SRF=     0.00000     0.00000
                               V21M TOT/SRF=     0.00000     0.00000

              0.44986    0.00000    0.00000        0.44986    0.00000    0.00000
              0.00000    0.44986    0.00000        0.00000    0.44986    0.00000
              0.00000    0.00000   -0.89972        0.00000    0.00000   -0.89972

         MAIN DIRECTIONS OF THE EFG   1.0000  0.0000  0.0000
                                      0.0000  1.0000  0.0000
                                      0.0000  0.0000  1.0000
:ANG001:  ANGLE WITH OLD X-AXIS =         0.0

:ETA001:                         ASYMM. ETA =     0.00000


       ATOMNUMBER=  2 In1        VCOUL-ZERO =  0.67520E-01
:EFG002:                        EFG         =     0.80859   *10**21  V / m**2
                               V20  TOT/SRF=     0.70026    -0.07047
                               V22  TOT/SRF=     0.00000     0.00000
                               V22M TOT/SRF=     0.00000     0.00000
                               V21  TOT/SRF=     0.00000     0.00000
                               V21M TOT/SRF=     0.00000     0.00000

             -0.40430    0.00000    0.00000       -0.40430    0.00000    0.00000
              0.00000   -0.40430    0.00000        0.00000   -0.40430    0.00000
              0.00000    0.00000    0.80859        0.00000    0.00000    0.80859

         MAIN DIRECTIONS OF THE EFG   1.0000  0.0000  0.0000
                                      0.0000  1.0000  0.0000
                                      0.0000  0.0000  1.0000
:ANG002:  ANGLE WITH OLD X-AXIS =         0.0

:ETA002:                         ASYMM. ETA =     0.00000


       ATOMNUMBER=  3 O 1        VCOUL-ZERO =  0.31739E-01
:EFG003:                        EFG         =     0.70335   *10**21  V / m**2
                               V20  TOT/SRF=     0.60912     0.36980
                               V22  TOT/SRF=     0.00000     0.00000
                               V22M TOT/SRF=     0.00000     0.00000
                               V21  TOT/SRF=     0.00000     0.00000
                               V21M TOT/SRF=     0.00000     0.00000

             -0.35167    0.00000    0.00000       -0.35167    0.00000    0.00000
              0.00000   -0.35167    0.00000        0.00000   -0.35167    0.00000
              0.00000    0.00000    0.70335        0.00000    0.00000    0.70335

         MAIN DIRECTIONS OF THE EFG   1.0000  0.0000  0.0000
                                      0.0000  1.0000  0.0000
                                      0.0000  0.0000  1.0000
:ANG003:  ANGLE WITH OLD X-AXIS =         0.0

:ETA003:                         ASYMM. ETA =     0.00000


     HELLMANN-FEYNMAN-FORCE IN mRy/a.u. = |F|  Fx       Fy             Fz
:FHF001:   1.ATOM      0.000000000      0.000000000      0.000000000      0.000000000

     HELLMANN-FEYNMAN-FORCE IN mRy/a.u. = |F|  Fx       Fy             Fz
:FHF002:   2.ATOM      0.000000000      0.000000000      0.000000000      0.000000000

     HELLMANN-FEYNMAN-FORCE IN mRy/a.u. = |F|  Fx       Fy             Fz
:FHF003:   3.ATOM     60.594061526      0.000000000      0.000000000    -60.594061526

:FIT001: LUSE= 13 SIGMA OF V-XC FIT FOR ATOM  1  0.7998864E-02
:FIT001: LUSE= 13 SIGMA OF V-XC FIT FOR ATOM  1  0.7998864E-02
:FIT002: LUSE= 13 SIGMA OF V-XC FIT FOR ATOM  2  0.8229362E-02
:FIT002: LUSE= 13 SIGMA OF V-XC FIT FOR ATOM  2  0.8229362E-02
:FIT003: LUSE= 13 SIGMA OF V-XC FIT FOR ATOM  3  0.1047256E-03
:FIT003: LUSE= 13 SIGMA OF V-XC FIT FOR ATOM  3  0.1047256E-03
:DEN  : DENSITY INTEGRAL  =         -6250.78885130   (Ry)
       ELS_POTENTIAL_AT Z=0 and Z=0.5:   0.00000   0.00000
       ELS_POTENTIAL_AT Y=0 and Y=0.5:   0.00000   0.00000
:VZERO:v0,v0c,v0x  -0.76779   0.00000  -0.76779 v5,v5c,v5x  -0.76779   0.00000  -0.76779
:VZERY:v0,v0c,v0x  -0.76779   0.00000  -0.76779 v5,v5c,v5x  -0.76779   0.00000  -0.76779
:VZERX:v0,v0c,v0x  -1.81270  -0.75356  -1.05914 v5,v5c,v5x  -0.93165  -0.41647  -0.51518

          ATOMIC SPHERE DEPENDENT PARAMETERS FOR ATOM  Cu1       
:e__0001: OVERALL ENERGY PARAMETER IS    0.1002
          OVERALL BASIS SET ON ATOM IS LAPW
:E1_0001: E( 1)=    0.1002
             APW+lo
:E1_0001: E( 1)=   -4.7145   E(BOTTOM)=   -4.781   E(TOP)=   -4.648  1  2   167
             LOCAL ORBITAL
:E2_0001: E( 2)=    0.2125   E(BOTTOM)=   -0.115   E(TOP)=    0.540  0  1   127
             APW+lo
:E0_0001: E( 0)=    0.1002
             APW+lo

          ATOMIC SPHERE DEPENDENT PARAMETERS FOR ATOM  In1       
:e__0002: OVERALL ENERGY PARAMETER IS    0.1002
          OVERALL BASIS SET ON ATOM IS LAPW
:E2_0002: E( 2)=   -0.5624   E(BOTTOM)=   -0.976   E(TOP)=   -0.149  1  2   148
             APW+lo
:E2_0002: E( 2)=    0.5002
             LOCAL ORBITAL
:E0_0002: E( 0)=    0.1002
             APW+lo
:E1_0002: E( 1)=    0.1002
             APW+lo

          ATOMIC SPHERE DEPENDENT PARAMETERS FOR ATOM  O 1       
:e__0003: OVERALL ENERGY PARAMETER IS    0.1002
          OVERALL BASIS SET ON ATOM IS LAPW
:E0_0003: E( 0)=   -1.5500   E(BOTTOM)=   -2.763   E(TOP)= -200.000  1 -1   242
             APW+lo
:E0_0003: E( 0)=    0.5002
             LOCAL ORBITAL
:E1_0003: E( 1)=    0.1002
             APW+lo

       K=   0.00000   0.00000   0.00000            1
:RKM  : MATRIX SIZE  1213LOs:  36  RKM= 7.97  WEIGHT= 1.00  PGR:    
       EIGENVALUES ARE:
:EIG00001:      -4.7060101   -4.6970505   -4.6970505   -1.1118547   -1.0299280
:EIG00006:      -0.5637625   -0.5637625   -0.5444509   -0.5173872   -0.5173872
:EIG00011:      -0.1525521    0.0571483    0.0997885    0.0997885    0.1172081
:EIG00016:       0.1172081    0.1892005    0.2565282    0.2565282    0.3105685
:EIG00021:       0.3105685    0.4093337    0.7145581    0.7627633    1.2472869
:EIG00026:       1.2472869    1.2966758    1.4860939    1.4860939    1.5357806
:EIG00031:       1.5392938    1.5423279    1.5423279    1.7126907
       ********************************************************

:KPT   :      NUMBER OF K-POINTS:    32
       Insulator, EF-inconsistency corrected
:GAP  :    0.0572 Ry =     0.778 eV   (provided you have a proper k-mesh)
         Bandranges (emin - emax) and occupancy:
:BAN00011:  11   -0.152552   -0.075052  2.00000000
:BAN00012:  12   -0.119400    0.057148  2.00000000
:BAN00013:  13   -0.041221    0.099789  2.00000000
:BAN00014:  14    0.001558    0.099789  2.00000000
:BAN00015:  15    0.032789    0.156143  2.00000000
:BAN00016:  16    0.101827    0.158324  2.00000000
:BAN00017:  17    0.186397    0.260929  2.00000000
:BAN00018:  18    0.253786    0.281029  2.00000000
:BAN00019:  19    0.256390    0.287335  2.00000000
:BAN00020:  20    0.285279    0.314595  2.00000000
:BAN00021:  21    0.297291    0.352149  2.00000000
:BAN00022:  22    0.409334    0.762210  0.00000000
:BAN00023:  23    0.612175    0.766357  0.00000000
:BAN00024:  24    0.741497    0.987595  0.00000000
:BAN00025:  25    0.890426    1.247287  0.00000000
:BAN00026:  26    1.014252    1.247287  0.00000000
        Energy to separate low and high energystates:   -0.20255


:NOE  : NUMBER OF ELECTRONS          =  42.000

:FER  : F E R M I - ENERGY(TETRAH.M.)=   0.3521486073
:GMA  : POTENTIAL AND CHARGE CUT-OFF  12.00 Ry**.5




:POS001: ATOM   -1 X,Y,Z = 0.00000 0.00000 0.00000  MULT= 1  ZZ= 29.000  Cu1       

       LMMAX  7
       LM=   0 0  2 0  4 0  4 3  6 0  6 3  6 6

:CHA001: TOTAL VALENCE CHARGE INSIDE SPHERE   1 =  15.4770    (RMT=  2.0000 )
:PCS001: PARTIAL CHARGES SPHERE =  1 S,P,D,F,PZ,PXY, D-Z2,D-XY,X2Y2,D-XZ,YZ 
:QTL001: 0.2545 6.1336 9.0618 0.0200 2.1118 4.0218 0.0000 1.6276 3.6867 3.7475 0.0000 0.0000
        Q-s-low E-s-low   Q-p-low E-p-low   Q-d-low E-d-low   Q-f-low E-f-low
:EPL001:  0.0243 -0.9451    6.0094 -4.6839    0.0332 -0.9159    0.0042 -0.9735
        Q-s-hi  E-s-hi    Q-p-hi  E-p-hi    Q-d-hi  E-d-hi    Q-f-hi  E-f-hi 
:EPH001:  0.2301  0.1387    0.1242  0.0431    9.0286  0.2544    0.0158  0.0383
:VZZ001: EFG INSIDE SPHERE   1 =    -6.384212      UP TO R =   2.00000




:POS002: ATOM   -2 X,Y,Z = 0.50000 0.50000 0.50000  MULT= 1  ZZ= 49.000  In1       

       LMMAX  7
       LM=   0 0  2 0  4 0  4 3  6 0  6 3  6 6

:CHA002: TOTAL VALENCE CHARGE INSIDE SPHERE   2 =  10.0645    (RMT=  2.1300 )
:PCS002: PARTIAL CHARGES SPHERE =  2 S,P,D,F,PZ,PXY, D-Z2,D-XY,X2Y2,D-XZ,YZ 
:QTL002: 0.2724 0.2119 9.5429 0.0304 0.0596 0.1523 0.0000 1.8931 3.8195 3.8303 0.0000 0.0000
        Q-s-low E-s-low   Q-p-low E-p-low   Q-d-low E-d-low   Q-f-low E-f-low
:EPL002:  0.0251 -1.0238    0.0252 -0.9924    9.0922 -0.5317    0.0040 -1.0022
        Q-s-hi  E-s-hi    Q-p-hi  E-p-hi    Q-d-hi  E-d-hi    Q-f-hi  E-f-hi 
:EPH002:  0.2473 -0.0806    0.1867  0.0170    0.4507  0.0498    0.0264  0.0536
:VZZ002: EFG INSIDE SPHERE   2 =     7.512575      UP TO R =   2.13000




:POS003: ATOM   -3 X,Y,Z = 0.10553 0.10553 0.10553  MULT= 2  ZZ=  8.000  O 1       

       LMMAX 12
       LM=   0 0  1 0  2 0  3 0  3 3  4 0  4 3  5 0  5 3  6 0  6 3  6 6

:CHA003: TOTAL VALENCE CHARGE INSIDE SPHERE   3 =   4.7763    (RMT=  1.4000 )
:PCS003: PARTIAL CHARGES SPHERE =  3 S,P,D,F,PZ,PXY, D-Z2,D-XY,X2Y2,D-XZ,YZ 
:QTL003: 1.4214 3.3471 0.0066 0.0010 1.0948 2.2523 0.0000 0.0016 0.0013 0.0036 0.0000 0.0000
        Q-s-low E-s-low   Q-p-low E-p-low   Q-d-low E-d-low   Q-f-low E-f-low
:EPL003:  1.3862 -1.0423    0.0818 -0.5433    0.0019 -0.6859    0.0003 -0.8626
        Q-s-hi  E-s-hi    Q-p-hi  E-p-hi    Q-d-hi  E-d-hi    Q-f-hi  E-f-hi 
:EPH003:  0.0352  0.0064    3.2653  0.0412    0.0047  0.1878    0.0007  0.2004
:VZZ003: EFG INSIDE SPHERE   3 =     2.414447      UP TO R =   1.40000

:CHA  : TOTAL VALENCE CHARGE INSIDE UNIT CELL =      42.000000

:SUM  : SUM OF EIGENVALUES =         -34.795185339


        1.ATOM      Cu1                   5 CORE STATES
:1S 001: 1S                -649.726872887 Ry
:2S 001: 2S                 -77.452680841 Ry
:2PP001: 2P*                -67.765787647 Ry
:2P 001: 2P                 -66.259978952 Ry
:3S 001: 3S                  -7.833097316 Ry

        2.ATOM      In1                  12 CORE STATES
:1S 002: 1S               -2037.761052438 Ry
:2S 002: 2S                -304.295190063 Ry
:2PP002: 2P*               -283.705238545 Ry
:2P 002: 2P                -268.205942253 Ry
:3S 002: 3S                 -57.048598812 Ry
:3PP002: 3P*                -48.741628954 Ry
:3P 002: 3P                 -45.941951627 Ry
:3DD002: 3D*                -31.255353750 Ry
:3D 002: 3D                 -30.681775765 Ry
:4S 002: 4S                  -7.929564247 Ry
:4PP002: 4P*                 -5.219023736 Ry
:4P 002: 4P                  -4.731196780 Ry

        3.ATOM      O 1                   1 CORE STATES
       CORE-FORCE in mRy/a.u. = |F|      Fx             Fy             Fz
:FCO003:   3.ATOM      7.002730218      0.000000000      0.000000000      7.002730218

:1S 003: 1S                 -36.905212455 Ry
:CINT001 Core Integral Atom   1   11.998519
:CINT002 Core Integral Atom   2   35.973923
:CINT003 Core Integral Atom   3    1.999999

       DENSITY AT NUCLEUS
        JATOM        VALENCE       SEMI-CORE          CORE           TOTAL
:RTO001:   1        7.272332        0.000000    22629.753966    22637.026298
:RTO002:   2       30.075265        0.000000   236275.460935   236305.536200
:RTO003:   3       15.541629        0.000000      303.927807      319.469437
     
       CHARGES OF NEW CHARGE DENSITY
:NTO   : INTERSTITIAL CHARGE =     6.905909
:NTO001: CHARGE SPHERE  1    =    27.475526
:NTO002: CHARGE SPHERE  2    =    46.038393
:NTO003: CHARGE SPHERE  3    =     6.776295

:NEC01: NUCLEAR AND ELECTRONIC CHARGE     94.00000    93.97242
     
       CHARGES OF OLD CHARGE DENSITY
:OTO   : INTERSTITIAL CHARGE =     7.562704
:OTO001: CHARGE SPHERE  1    =    27.285828
:OTO002: CHARGE SPHERE  2    =    46.411591
:OTO003: CHARGE SPHERE  3    =     6.369938

:NEC02: NUCLEAR AND ELECTRONIC CHARGE     94.00000    94.00000
     
       CONVERGENCE TEST
:DTO001: DIFFERENCE IN SPHERE  1 =  0.3343594
:DTO002: DIFFERENCE IN SPHERE  2 =  0.2595122
:DTO003: DIFFERENCE IN SPHERE  3 =  0.4867431

:DIS  :  CHARGE DISTANCE       ( 0.4867431 for atom    3 spin 1)      0.3918395
:BIG check (qbig,qrms,qtot)    0.162D+00   0.286D+00   0.392D+00
 
******************************************************
* MULTISECANT MIXING VER6 RELEASE 6.0 OPTIONS        *
* Standard Mode with controls                        *
* Regularization       1.000E-06                     *
* Trust Region Control Active                        *
* Max Number of Memory Steps    8                    *
******************************************************
 
:PLANE:  INTERSTITIAL TOTAL      1.91512 DISTAN  2.524E+01 % 
:CHARG:  CLM CHARGE   /ATOM    107.21858 DISTAN  6.126E-01 % 
:REDuction and DMIX in Broyd:    0.9258    0.1852
 
 Step History DMIX, Red, Pred, Trust, FRMS, FABS
  2  3.5000E-02  1.0000E+00  1.0000E+00  1.0000E+00
  3  8.7500E-02  1.0000E+00  1.0000E+00  1.0000E+00
  
:NORMS:  Nuclear, Spectral, Froebius, Shanno-Pua   0.2965E+01  0.2936E+01  0.2936E+01  0.2879E+00
:INFO :  Number of Memory Steps    2 Skipping    0
:INFO :  SLambda=    2.9646475  Max    2.9646475

Eigenvalues, unscaled except for SY+YY
   #     SY Real        SY Imag          SS             YY         SY+YY Real      SY+YY Imag
   1   5.757125E-01   0.000000E+00   2.320621E-01   1.962856E-04   3.706596E+00   0.000000E+00
   2  -1.776357E-15   0.000000E+00  -5.551115E-17   1.999804E+00   1.885175E-04   0.000000E+00
 
:INFO :  Singular value   3.707E+00 Weight  1.0000E+00 Projections   1.345E+01  1.907E+00
:INFO :  Singular value   1.885E-04 Weight  9.9989E-01 Projections  -1.613E+01 -2.092E+01
 
:DIRM :  MEMORY 2/8 RESCALE   4.78 RED 0.788 PRED 1.000 NEXT 0.749
:INFO :  Blimit    1.545E+00  1.010E+00  6.523E-01  2.635E+00
:DIRP :  |MSR1|= 7.021E-01 |PRATT|= 2.310E+00 ANGLE=   2.4 DEGREES
:DIRQ :  |MSR1|= 6.340E-01 |PRATT|= 1.971E+00 ANGLE=   2.7 DEGREES
:DIR  :  |MSR1|= 9.460E-01 |PRATT|= 3.036E+00 ANGLE=   3.0 DEGREES
:MIX  :   MSE1   REGULARIZATION: 2.00E-06  GREED: 0.098  Newton 1.00  0.31                
     
       CHARGES OF MIXED CHARGE DENSITY
:CTO   : INTERSTITIAL CHARGE =     7.355286
:CTO001: CHARGE SPHERE  1    =    27.346161
:CTO002: CHARGE SPHERE  2    =    46.293254
:CTO003: CHARGE SPHERE  3    =     6.502650

:NEC03: NUCLEAR AND ELECTRONIC CHARGE     94.00000    94.00000

PW CHANGE     H    K    L       Current     Change     Residue
:PTO001:      0    0    0  6.11267714E-02 -5.217E-04 -1.705E-03
:PTO002:     -1   -1   -1 -2.93362006E-02  7.816E-04  2.754E-03
:PTO003:     -2   -2   -2  3.68640160E-03 -2.685E-03 -8.745E-03
:PTO004:     -1    0    0  7.04762032E-02  9.038E-03  2.954E-02
:PTO005:     -1   -1    0  9.87628006E-02 -2.145E-03 -7.583E-03
:PTO006:     -2   -1   -1 -1.97507110E-02 -8.464E-03 -2.769E-02
:PTO007:     -2   -2   -1 -8.57240831E-02 -2.705E-03 -8.060E-03
:PTO008:     -3   -3   -3  1.92077168E-02  2.317E-03  7.493E-03
:PTO009:     -3   -2   -2 -7.55502988E-03  2.167E-03  7.368E-03
:PTO010:     -3   -3   -2  5.26008456E-02  2.238E-04  1.705E-04
:PTO011:     -1    0    1  6.44971970E-02  8.155E-04  1.761E-03
:PTO012:     -2   -1    0 -3.64255628E-02  1.463E-04  1.408E-03

:ENE  : ********** TOTAL ENERGY IN Ry =       -15377.83070547

       TOTAL FORCE IN mRy/a.u. = |F|     Fx             Fy             Fz     with/without FOR in case.in2
:FOR001:   1.ATOM          0.000          0.000          0.000          0.000 partial forces
:FOR002:   2.ATOM          0.000          0.000          0.000          0.000 partial forces
:FOR003:   3.ATOM         53.591          0.000          0.000        -53.591 partial forces
       TOTAL FORCE WITH RESPECT TO GLOBAL CARTESIAN COORDINATES:
:FCA001:   1.ATOM                         0.000          0.000          0.000 partial forces
:FCA002:   2.ATOM                         0.000          0.000          0.000 partial forces
:FCA003:   3.ATOM                         0.000          0.000        -53.591 partial forces
       TOTAL FORCE WITH RESPECT TO THE GLOBAL COORDINATE SYSTEM:
:FGL001:   1.ATOM                 0.000000000     0.000000000     0.000000000 partial forces
:FGL002:   2.ATOM                 0.000000000     0.000000000     0.000000000 partial forces
:FGL003:   3.ATOM               -53.591331308   -53.591331308   -53.591331308 partial forces


            ---------
:ITE004:  4. ITERATION
            ---------

:NATO :    3 INDEPENDENT AND    4 TOTAL ATOMS IN UNITCELL
       SUBSTANCE: CuInO2 ShimodeM00                                           

       LATTICE                      = R   
:POT  : POTENTIAL OPTION EX_PBE EC_PBE VX_PBE VC_PBE
:LAT  : LATTICE CONSTANTS=  6.22095  6.22095 32.85838
:VOL  : UNIT CELL VOLUME =     367.08653
       MODE OF CALCULATION IS       = RELA
       NON-SPINPOLARIZED CALCULATION
:IFFT  : FFT-parameters:   90   90   90 Factor: 2.00
       ATOMNUMBER=  1 Cu1        VCOUL-ZERO =  0.29805E+00
:EFG001:                        EFG         =    -2.55434   *10**21  V / m**2
                               V20  TOT/SRF=    -2.21212     0.22446
                               V22  TOT/SRF=     0.00000     0.00000
                               V22M TOT/SRF=     0.00000     0.00000
                               V21  TOT/SRF=     0.00000     0.00000
                               V21M TOT/SRF=     0.00000     0.00000

              1.27717    0.00000    0.00000        1.27717    0.00000    0.00000
              0.00000    1.27717    0.00000        0.00000    1.27717    0.00000
              0.00000    0.00000   -2.55434        0.00000    0.00000   -2.55434

         MAIN DIRECTIONS OF THE EFG   1.0000  0.0000  0.0000
                                      0.0000  1.0000  0.0000
                                      0.0000  0.0000  1.0000
:ANG001:  ANGLE WITH OLD X-AXIS =         0.0

:ETA001:                         ASYMM. ETA =     0.00000


       ATOMNUMBER=  2 In1        VCOUL-ZERO =  0.28151E-01
:EFG002:                        EFG         =     2.78445   *10**21  V / m**2
                               V20  TOT/SRF=     2.41140    -0.04211
                               V22  TOT/SRF=     0.00000     0.00000
                               V22M TOT/SRF=     0.00000     0.00000
                               V21  TOT/SRF=     0.00000     0.00000
                               V21M TOT/SRF=     0.00000     0.00000

             -1.39223    0.00000    0.00000       -1.39223    0.00000    0.00000
              0.00000   -1.39223    0.00000        0.00000   -1.39223    0.00000
              0.00000    0.00000    2.78445        0.00000    0.00000    2.78445

         MAIN DIRECTIONS OF THE EFG   1.0000  0.0000  0.0000
                                      0.0000  1.0000  0.0000
                                      0.0000  0.0000  1.0000
:ANG002:  ANGLE WITH OLD X-AXIS =         0.0

:ETA002:                         ASYMM. ETA =     0.00000


       ATOMNUMBER=  3 O 1        VCOUL-ZERO =  0.11999E+00
:EFG003:                        EFG         =     1.35495   *10**21  V / m**2
                               V20  TOT/SRF=     1.17342     0.33572
                               V22  TOT/SRF=     0.00000     0.00000
                               V22M TOT/SRF=     0.00000     0.00000
                               V21  TOT/SRF=     0.00000     0.00000
                               V21M TOT/SRF=     0.00000     0.00000

             -0.67747    0.00000    0.00000       -0.67747    0.00000    0.00000
              0.00000   -0.67747    0.00000        0.00000   -0.67747    0.00000
              0.00000    0.00000    1.35495        0.00000    0.00000    1.35495

         MAIN DIRECTIONS OF THE EFG   1.0000  0.0000  0.0000
                                      0.0000  1.0000  0.0000
                                      0.0000  0.0000  1.0000
:ANG003:  ANGLE WITH OLD X-AXIS =         0.0

:ETA003:                         ASYMM. ETA =     0.00000


     HELLMANN-FEYNMAN-FORCE IN mRy/a.u. = |F|  Fx       Fy             Fz
:FHF001:   1.ATOM      0.000000000      0.000000000      0.000000000      0.000000000

     HELLMANN-FEYNMAN-FORCE IN mRy/a.u. = |F|  Fx       Fy             Fz
:FHF002:   2.ATOM      0.000000000      0.000000000      0.000000000      0.000000000

     HELLMANN-FEYNMAN-FORCE IN mRy/a.u. = |F|  Fx       Fy             Fz
:FHF003:   3.ATOM    106.030448466      0.000000000      0.000000000   -106.030448466

:FIT001: LUSE= 13 SIGMA OF V-XC FIT FOR ATOM  1  0.7685612E-02
:FIT001: LUSE= 13 SIGMA OF V-XC FIT FOR ATOM  1  0.7685612E-02
:FIT002: LUSE= 13 SIGMA OF V-XC FIT FOR ATOM  2  0.9562104E-02
:FIT002: LUSE= 13 SIGMA OF V-XC FIT FOR ATOM  2  0.9562104E-02
:FIT003: LUSE= 13 SIGMA OF V-XC FIT FOR ATOM  3  0.1082230E-03
:FIT003: LUSE= 13 SIGMA OF V-XC FIT FOR ATOM  3  0.1082230E-03
:DEN  : DENSITY INTEGRAL  =         -6253.01385370   (Ry)
       ELS_POTENTIAL_AT Z=0 and Z=0.5:   0.00000   0.00000
       ELS_POTENTIAL_AT Y=0 and Y=0.5:   0.00000   0.00000
:VZERO:v0,v0c,v0x  -0.75618   0.00000  -0.75618 v5,v5c,v5x  -0.75618   0.00000  -0.75618
:VZERY:v0,v0c,v0x  -0.75618   0.00000  -0.75618 v5,v5c,v5x  -0.75618   0.00000  -0.75618
:VZERX:v0,v0c,v0x  -1.72872  -0.65998  -1.06873 v5,v5c,v5x  -0.97603  -0.50240  -0.47363

          ATOMIC SPHERE DEPENDENT PARAMETERS FOR ATOM  Cu1       
:e__0001: OVERALL ENERGY PARAMETER IS    0.1521
          OVERALL BASIS SET ON ATOM IS LAPW
:E1_0001: E( 1)=    0.1521
             APW+lo
:E1_0001: E( 1)=   -4.6065   E(BOTTOM)=   -4.675   E(TOP)=   -4.538  1  2   175
             LOCAL ORBITAL
:E2_0001: E( 2)=    0.3075   E(BOTTOM)=   -0.033   E(TOP)=    0.648  0  1   129
             APW+lo
:E0_0001: E( 0)=    0.1521
             APW+lo

          ATOMIC SPHERE DEPENDENT PARAMETERS FOR ATOM  In1       
:e__0002: OVERALL ENERGY PARAMETER IS    0.1521
          OVERALL BASIS SET ON ATOM IS LAPW
:E2_0002: E( 2)=   -0.6245   E(BOTTOM)=   -1.034   E(TOP)=   -0.215  1  2   139
             APW+lo
:E2_0002: E( 2)=    0.5521
             LOCAL ORBITAL
:E0_0002: E( 0)=    0.1521
             APW+lo
:E1_0002: E( 1)=    0.1521
             APW+lo

          ATOMIC SPHERE DEPENDENT PARAMETERS FOR ATOM  O 1       
:e__0003: OVERALL ENERGY PARAMETER IS    0.1521
          OVERALL BASIS SET ON ATOM IS LAPW
:E0_0003: E( 0)=   -1.5500   E(BOTTOM)=   -2.634   E(TOP)= -200.000  1 -1   234
             APW+lo
:E0_0003: E( 0)=    0.5521
             LOCAL ORBITAL
:E1_0003: E( 1)=    0.1521
             APW+lo

       K=   0.00000   0.00000   0.00000            1
:RKM  : MATRIX SIZE  1213LOs:  36  RKM= 7.97  WEIGHT= 1.00  PGR:    
       EIGENVALUES ARE:
:EIG00001:      -4.5962437   -4.5891440   -4.5891440   -1.0164121   -0.9197468
:EIG00006:      -0.6130777   -0.6130777   -0.5979610   -0.5782543   -0.5782543
:EIG00011:      -0.0836488    0.1630636    0.2040556    0.2040556    0.2106011
:EIG00016:       0.2106011    0.2296551    0.3446665    0.3446665    0.4105494
:EIG00021:       0.4105494    0.4645744    0.7278933    0.8309423    1.2389403
:EIG00026:       1.2389403    1.3094070    1.5152579    1.5152579    1.5320949
:EIG00031:       1.5499345    1.5499345    1.5523614    1.7066772
       ********************************************************

:KPT   :      NUMBER OF K-POINTS:    32
       Insulator, EF-inconsistency corrected
:GAP  :    0.0234 Ry =     0.319 eV   (provided you have a proper k-mesh)
         Bandranges (emin - emax) and occupancy:
:BAN00011:  11   -0.083649   -0.003749  2.00000000
:BAN00012:  12   -0.051295    0.163064  2.00000000
:BAN00013:  13    0.037467    0.204056  2.00000000
:BAN00014:  14    0.090416    0.204056  2.00000000
:BAN00015:  15    0.128313    0.237812  2.00000000
:BAN00016:  16    0.196104    0.257351  2.00000000
:BAN00017:  17    0.229655    0.347660  2.00000000
:BAN00018:  18    0.337447    0.373824  2.00000000
:BAN00019:  19    0.344490    0.378508  2.00000000
:BAN00020:  20    0.376583    0.416771  2.00000000
:BAN00021:  21    0.387631    0.441150  2.00000000
:BAN00022:  22    0.464574    0.788185  0.00000000
:BAN00023:  23    0.700877    0.788741  0.00000000
:BAN00024:  24    0.780887    1.003558  0.00000000
:BAN00025:  25    0.932010    1.238940  0.00000000
:BAN00026:  26    1.047892    1.254348  0.00000000
        Energy to separate low and high energystates:   -0.13365


:NOE  : NUMBER OF ELECTRONS          =  42.000

:FER  : F E R M I - ENERGY(TETRAH.M.)=   0.4411500117
:GMA  : POTENTIAL AND CHARGE CUT-OFF  12.00 Ry**.5




:POS001: ATOM   -1 X,Y,Z = 0.00000 0.00000 0.00000  MULT= 1  ZZ= 29.000  Cu1       

       LMMAX  7
       LM=   0 0  2 0  4 0  4 3  6 0  6 3  6 6

:CHA001: TOTAL VALENCE CHARGE INSIDE SPHERE   1 =  15.3202    (RMT=  2.0000 )
:PCS001: PARTIAL CHARGES SPHERE =  1 S,P,D,F,PZ,PXY, D-Z2,D-XY,X2Y2,D-XZ,YZ 
:QTL001: 0.2913 6.1486 8.8543 0.0195 2.1185 4.0301 0.0000 1.5117 3.6315 3.7110 0.0000 0.0000
        Q-s-low E-s-low   Q-p-low E-p-low   Q-d-low E-d-low   Q-f-low E-f-low
:EPL001:  0.0244 -0.8780    6.0083 -4.5757    0.0302 -0.8660    0.0039 -0.8877
        Q-s-hi  E-s-hi    Q-p-hi  E-p-hi    Q-d-hi  E-d-hi    Q-f-hi  E-f-hi 
:EPH001:  0.2669  0.2161    0.1403  0.1417    8.8241  0.3434    0.0156  0.1346
:VZZ001: EFG INSIDE SPHERE   1 =    -4.227521      UP TO R =   2.00000




:POS002: ATOM   -2 X,Y,Z = 0.50000 0.50000 0.50000  MULT= 1  ZZ= 49.000  In1       

       LMMAX  7
       LM=   0 0  2 0  4 0  4 3  6 0  6 3  6 6

:CHA002: TOTAL VALENCE CHARGE INSIDE SPHERE   2 =  10.2246    (RMT=  2.1300 )
:PCS002: PARTIAL CHARGES SPHERE =  2 S,P,D,F,PZ,PXY, D-Z2,D-XY,X2Y2,D-XZ,YZ 
:QTL002: 0.3452 0.2632 9.5758 0.0336 0.0759 0.1873 0.0000 1.8992 3.8332 3.8434 0.0000 0.0000
        Q-s-low E-s-low   Q-p-low E-p-low   Q-d-low E-d-low   Q-f-low E-f-low
:EPL002:  0.0305 -0.9551    0.0291 -0.9108    9.2475 -0.5878    0.0042 -0.9085
        Q-s-hi  E-s-hi    Q-p-hi  E-p-hi    Q-d-hi  E-d-hi    Q-f-hi  E-f-hi 
:EPH002:  0.3147 -0.0148    0.2340  0.1059    0.3283  0.1445    0.0293  0.1483
:VZZ002: EFG INSIDE SPHERE   2 =     8.173690      UP TO R =   2.13000




:POS003: ATOM   -3 X,Y,Z = 0.10553 0.10553 0.10553  MULT= 2  ZZ=  8.000  O 1       

       LMMAX 12
       LM=   0 0  1 0  2 0  3 0  3 3  4 0  4 3  5 0  5 3  6 0  6 3  6 6

:CHA003: TOTAL VALENCE CHARGE INSIDE SPHERE   3 =   4.4955    (RMT=  1.4000 )
:PCS003: PARTIAL CHARGES SPHERE =  3 S,P,D,F,PZ,PXY, D-Z2,D-XY,X2Y2,D-XZ,YZ 
:QTL003: 1.3945 3.0928 0.0070 0.0010 1.0196 2.0732 0.0000 0.0015 0.0014 0.0041 0.0000 0.0000
        Q-s-low E-s-low   Q-p-low E-p-low   Q-d-low E-d-low   Q-f-low E-f-low
:EPL003:  1.3475 -0.9335    0.0486 -0.6013    0.0018 -0.7419    0.0003 -0.9131
        Q-s-hi  E-s-hi    Q-p-hi  E-p-hi    Q-d-hi  E-d-hi    Q-f-hi  E-f-hi 
:EPH003:  0.0469  0.0690    3.0441  0.1326    0.0052  0.2737    0.0007  0.2923
:VZZ003: EFG INSIDE SPHERE   3 =     1.446573      UP TO R =   1.40000

:CHA  : TOTAL VALENCE CHARGE INSIDE UNIT CELL =      42.000000

:SUM  : SUM OF EIGENVALUES =         -32.371220888


        1.ATOM      Cu1                   5 CORE STATES
:1S 001: 1S                -649.588572156 Ry
:2S 001: 2S                 -77.306746570 Ry
:2PP001: 2P*                -67.620013105 Ry
:2P 001: 2P                 -66.114185840 Ry
:3S 001: 3S                  -7.721089514 Ry

        2.ATOM      In1                  12 CORE STATES
:1S 002: 1S               -2037.844801334 Ry
:2S 002: 2S                -304.374182513 Ry
:2PP002: 2P*               -283.784831423 Ry
:2P 002: 2P                -268.285353746 Ry
:3S 002: 3S                 -57.124023232 Ry
:3PP002: 3P*                -48.817191570 Ry
:3P 002: 3P                 -46.017347223 Ry
:3DD002: 3D*                -31.331018431 Ry
:3D 002: 3D                 -30.757388313 Ry
:4S 002: 4S                  -7.998180440 Ry
:4PP002: 4P*                 -5.286732206 Ry
:4P 002: 4P                  -4.798398012 Ry

        3.ATOM      O 1                   1 CORE STATES
       CORE-FORCE in mRy/a.u. = |F|      Fx             Fy             Fz
:FCO003:   3.ATOM      3.057268197      0.000000000      0.000000000      3.057268197

:1S 003: 1S                 -36.676317904 Ry
:CINT001 Core Integral Atom   1   11.998462
:CINT002 Core Integral Atom   2   35.974414
:CINT003 Core Integral Atom   3    1.999999

       DENSITY AT NUCLEUS
        JATOM        VALENCE       SEMI-CORE          CORE           TOTAL
:RTO001:   1        8.412095        0.000000    22628.861014    22637.273109
:RTO002:   2       38.904611        0.000000   236276.614602   236315.519214
:RTO003:   3       15.013465        0.000000      303.865776      318.879241
     
       CHARGES OF NEW CHARGE DENSITY
:NTO   : INTERSTITIAL CHARGE =     7.464195
:NTO001: CHARGE SPHERE  1    =    27.318656
:NTO002: CHARGE SPHERE  2    =    46.199062
:NTO003: CHARGE SPHERE  3    =     6.495471

:NEC01: NUCLEAR AND ELECTRONIC CHARGE     94.00000    93.97285
     
       CHARGES OF OLD CHARGE DENSITY
:OTO   : INTERSTITIAL CHARGE =     7.355286
:OTO001: CHARGE SPHERE  1    =    27.346161
:OTO002: CHARGE SPHERE  2    =    46.293254
:OTO003: CHARGE SPHERE  3    =     6.502650

:NEC02: NUCLEAR AND ELECTRONIC CHARGE     94.00000    94.00000
     
       CONVERGENCE TEST
:DTO001: DIFFERENCE IN SPHERE  1 =  0.4126673
:DTO002: DIFFERENCE IN SPHERE  2 =  0.1655021
:DTO003: DIFFERENCE IN SPHERE  3 =  0.1973909

:DIS  :  CHARGE DISTANCE       ( 0.4126673 for atom    1 spin 1)      0.2432378
:BIG check (qbig,qrms,qtot)    0.138D+00   0.186D+00   0.243D+00
 
******************************************************
* MULTISECANT MIXING VER6 RELEASE 6.0 OPTIONS        *
* Standard Mode with controls                        *
* Regularization       1.000E-06                     *
* Trust Region Control Active                        *
* Max Number of Memory Steps    8                    *
******************************************************
 
:PLANE:  INTERSTITIAL TOTAL      1.94859 DISTAN  1.508E+01 % 
:CHARG:  CLM CHARGE   /ATOM    107.23199 DISTAN  3.728E-01 % 
 
 Step History DMIX, Red, Pred, Trust, FRMS, FABS
  2  3.5000E-02  1.0000E+00  1.0000E+00  1.0000E+00
  3  8.7500E-02  7.8848E-01  1.0000E+00  1.0000E+00
  4  9.7839E-02  1.0000E+00  7.4869E-01  2.6349E+00
  
:NORMS:  Nuclear, Spectral, Froebius, Shanno-Pua   0.2582E+01  0.2573E+01  0.2573E+01  0.3197E+00
:INFO :  Number of Memory Steps    3 Skipping    0
:INFO :  SLambda=    2.5817414  Max    2.5817414

Eigenvalues, unscaled except for SY+YY
   #     SY Real        SY Imag          SS             YY         SY+YY Real      SY+YY Imag
   1   9.577961E-01   0.000000E+00   4.526531E-01   2.995973E+00   5.468588E+00   0.000000E+00
   2   4.586014E-17   0.000000E+00   2.898376E-17   2.278076E-05   2.222784E-05   0.000000E+00
   3   1.635258E-03   0.000000E+00   5.759358E-04   4.004392E-03   8.393722E-03   0.000000E+00
 
:INFO :  Singular value   5.469E+00 Weight  1.0000E+00 Projections   6.698E+01  3.237E-01
:INFO :  Singular value   8.394E-03 Weight  1.0000E+00 Projections  -5.801E+01 -2.742E+01
:INFO :  Singular value   2.223E-05 Weight  9.8216E-01 Projections  -9.048E+00 -8.474E+01
 
:DIRM :  MEMORY 3/8 RESCALE   4.59 RED 0.608 PRED 0.749 NEXT 0.557
:INFO :  Blimit    2.096E+00  1.004E+00  7.970E-01  3.199E+00
:DIRP :  |MSR1|= 6.150E-01 |PRATT|= 1.350E+00 ANGLE=   9.9 DEGREES
:DIRQ :  |MSR1|= 6.007E-01 |PRATT|= 1.199E+00 ANGLE=   8.5 DEGREES
:DIR  :  |MSR1|= 8.597E-01 |PRATT|= 1.805E+00 ANGLE=   9.7 DEGREES
:MIX  :   MSE1   REGULARIZATION: 3.00E-06  GREED: 0.120  Newton 1.00  0.48                
     
       CHARGES OF MIXED CHARGE DENSITY
:CTO   : INTERSTITIAL CHARGE =     7.402097
:CTO001: CHARGE SPHERE  1    =    27.327491
:CTO002: CHARGE SPHERE  2    =    46.239973
:CTO003: CHARGE SPHERE  3    =     6.515219

:NEC03: NUCLEAR AND ELECTRONIC CHARGE     94.00000    94.00000

PW CHANGE     H    K    L       Current     Change     Residue
:PTO001:      0    0    0  6.12326817E-02  1.059E-04 -1.338E-05
:PTO002:     -1   -1   -1 -2.80812224E-02  1.255E-03  2.905E-03
:PTO003:     -2   -2   -2  1.66144275E-03 -2.025E-03 -4.304E-03
:PTO004:     -1    0    0  7.84284307E-02  7.952E-03  1.661E-02
:PTO005:     -1   -1    0  9.63689325E-02 -2.394E-03 -6.357E-03
:PTO006:     -2   -1   -1 -2.70554342E-02 -7.305E-03 -1.543E-02
:PTO007:     -2   -2   -1 -8.67689920E-02 -1.045E-03 -6.302E-04
:PTO008:     -3   -3   -3  2.13439062E-02  2.136E-03  4.216E-03
:PTO009:     -3   -2   -2 -4.86269952E-03  2.692E-03  6.081E-03
:PTO010:     -3   -3   -2  5.20154009E-02 -5.854E-04 -2.439E-03
:PTO011:     -1    0    1  6.38163948E-02 -6.808E-04 -3.282E-03
:PTO012:     -2   -1    0 -3.57544619E-02  6.711E-04  3.689E-03

:ENE  : ********** TOTAL ENERGY IN Ry =       -15377.75261722

       TOTAL FORCE IN mRy/a.u. = |F|     Fx             Fy             Fz     with/without FOR in case.in2
:FOR001:   1.ATOM          0.000          0.000          0.000          0.000 partial forces
:FOR002:   2.ATOM          0.000          0.000          0.000          0.000 partial forces
:FOR003:   3.ATOM        102.973          0.000          0.000       -102.973 partial forces
       TOTAL FORCE WITH RESPECT TO GLOBAL CARTESIAN COORDINATES:
:FCA001:   1.ATOM                         0.000          0.000          0.000 partial forces
:FCA002:   2.ATOM                         0.000          0.000          0.000 partial forces
:FCA003:   3.ATOM                         0.000          0.000       -102.973 partial forces
       TOTAL FORCE WITH RESPECT TO THE GLOBAL COORDINATE SYSTEM:
:FGL001:   1.ATOM                 0.000000000     0.000000000     0.000000000 partial forces
:FGL002:   2.ATOM                 0.000000000     0.000000000     0.000000000 partial forces
:FGL003:   3.ATOM              -102.973180269  -102.973180269  -102.973180269 partial forces


            ---------
:ITE005:  5. ITERATION
            ---------

:NATO :    3 INDEPENDENT AND    4 TOTAL ATOMS IN UNITCELL
       SUBSTANCE: CuInO2 ShimodeM00                                           

       LATTICE                      = R   
:POT  : POTENTIAL OPTION EX_PBE EC_PBE VX_PBE VC_PBE
:LAT  : LATTICE CONSTANTS=  6.22095  6.22095 32.85838
:VOL  : UNIT CELL VOLUME =     367.08653
       MODE OF CALCULATION IS       = RELA
       NON-SPINPOLARIZED CALCULATION
:IFFT  : FFT-parameters:   90   90   90 Factor: 2.00
       ATOMNUMBER=  1 Cu1        VCOUL-ZERO =  0.30202E+00
:EFG001:                        EFG         =    -2.96041   *10**21  V / m**2
                               V20  TOT/SRF=    -2.56379     0.21086
                               V22  TOT/SRF=     0.00000     0.00000
                               V22M TOT/SRF=     0.00000     0.00000
                               V21  TOT/SRF=     0.00000     0.00000
                               V21M TOT/SRF=     0.00000     0.00000

              1.48020    0.00000    0.00000        1.48020    0.00000    0.00000
              0.00000    1.48020    0.00000        0.00000    1.48020    0.00000
              0.00000    0.00000   -2.96041        0.00000    0.00000   -2.96041

         MAIN DIRECTIONS OF THE EFG   1.0000  0.0000  0.0000
                                      0.0000  1.0000  0.0000
                                      0.0000  0.0000  1.0000
:ANG001:  ANGLE WITH OLD X-AXIS =         0.0

:ETA001:                         ASYMM. ETA =     0.00000


       ATOMNUMBER=  2 In1        VCOUL-ZERO =  0.19265E-01
:EFG002:                        EFG         =     5.16670   *10**21  V / m**2
                               V20  TOT/SRF=     4.47449    -0.01740
                               V22  TOT/SRF=     0.00000     0.00000
                               V22M TOT/SRF=     0.00000     0.00000
                               V21  TOT/SRF=     0.00000     0.00000
                               V21M TOT/SRF=     0.00000     0.00000

             -2.58335    0.00000    0.00000       -2.58335    0.00000    0.00000
              0.00000   -2.58335    0.00000        0.00000   -2.58335    0.00000
              0.00000    0.00000    5.16670        0.00000    0.00000    5.16670

         MAIN DIRECTIONS OF THE EFG   1.0000  0.0000  0.0000
                                      0.0000  1.0000  0.0000
                                      0.0000  0.0000  1.0000
:ANG002:  ANGLE WITH OLD X-AXIS =         0.0

:ETA002:                         ASYMM. ETA =     0.00000


       ATOMNUMBER=  3 O 1        VCOUL-ZERO =  0.15267E+00
:EFG003:                        EFG         =     1.67045   *10**21  V / m**2
                               V20  TOT/SRF=     1.44665     0.33626
                               V22  TOT/SRF=     0.00000     0.00000
                               V22M TOT/SRF=     0.00000     0.00000
                               V21  TOT/SRF=     0.00000     0.00000
                               V21M TOT/SRF=     0.00000     0.00000

             -0.83522    0.00000    0.00000       -0.83522    0.00000    0.00000
              0.00000   -0.83522    0.00000        0.00000   -0.83522    0.00000
              0.00000    0.00000    1.67045        0.00000    0.00000    1.67045

         MAIN DIRECTIONS OF THE EFG   1.0000  0.0000  0.0000
                                      0.0000  1.0000  0.0000
                                      0.0000  0.0000  1.0000
:ANG003:  ANGLE WITH OLD X-AXIS =         0.0

:ETA003:                         ASYMM. ETA =     0.00000


     HELLMANN-FEYNMAN-FORCE IN mRy/a.u. = |F|  Fx       Fy             Fz
:FHF001:   1.ATOM      0.000000000      0.000000000      0.000000000      0.000000000

     HELLMANN-FEYNMAN-FORCE IN mRy/a.u. = |F|  Fx       Fy             Fz
:FHF002:   2.ATOM      0.000000000      0.000000000      0.000000000      0.000000000

     HELLMANN-FEYNMAN-FORCE IN mRy/a.u. = |F|  Fx       Fy             Fz
:FHF003:   3.ATOM     10.932448903      0.000000000      0.000000000     10.932448903

:FIT001: LUSE= 13 SIGMA OF V-XC FIT FOR ATOM  1  0.7440667E-02
:FIT001: LUSE= 13 SIGMA OF V-XC FIT FOR ATOM  1  0.7440667E-02
:FIT002: LUSE= 13 SIGMA OF V-XC FIT FOR ATOM  2  0.9080733E-02
:FIT002: LUSE= 13 SIGMA OF V-XC FIT FOR ATOM  2  0.9080733E-02
:FIT003: LUSE= 13 SIGMA OF V-XC FIT FOR ATOM  3  0.1479267E-03
:FIT003: LUSE= 13 SIGMA OF V-XC FIT FOR ATOM  3  0.1479267E-03
:DEN  : DENSITY INTEGRAL  =         -6250.44822556   (Ry)
       ELS_POTENTIAL_AT Z=0 and Z=0.5:   0.00000   0.00000
       ELS_POTENTIAL_AT Y=0 and Y=0.5:   0.00000   0.00000
:VZERO:v0,v0c,v0x  -0.75242   0.00000  -0.75242 v5,v5c,v5x  -0.75242   0.00000  -0.75242
:VZERY:v0,v0c,v0x  -0.75242   0.00000  -0.75242 v5,v5c,v5x  -0.75242   0.00000  -0.75242
:VZERX:v0,v0c,v0x  -1.74570  -0.66884  -1.07686 v5,v5c,v5x  -0.95052  -0.50336  -0.44717

          ATOMIC SPHERE DEPENDENT PARAMETERS FOR ATOM  Cu1       
:e__0001: OVERALL ENERGY PARAMETER IS    0.2412
          OVERALL BASIS SET ON ATOM IS LAPW
:E1_0001: E( 1)=    0.2412
             APW+lo
:E1_0001: E( 1)=   -4.6937   E(BOTTOM)=   -4.760   E(TOP)=   -4.627  1  2   167
             LOCAL ORBITAL
:E2_0001: E( 2)=    0.2351   E(BOTTOM)=   -0.090   E(TOP)=    0.561  0  1   135
             APW+lo
:E0_0001: E( 0)=    0.2412
             APW+lo

          ATOMIC SPHERE DEPENDENT PARAMETERS FOR ATOM  In1       
:e__0002: OVERALL ENERGY PARAMETER IS    0.2412
          OVERALL BASIS SET ON ATOM IS LAPW
:E2_0002: E( 2)=   -0.6237   E(BOTTOM)=   -1.034   E(TOP)=   -0.213  1  2   140
             APW+lo
:E2_0002: E( 2)=    0.6412
             LOCAL ORBITAL
:E0_0002: E( 0)=    0.2412
             APW+lo
:E1_0002: E( 1)=    0.2412
             APW+lo

          ATOMIC SPHERE DEPENDENT PARAMETERS FOR ATOM  O 1       
:e__0003: OVERALL ENERGY PARAMETER IS    0.2412
          OVERALL BASIS SET ON ATOM IS LAPW
:E0_0003: E( 0)=   -1.5500   E(BOTTOM)=   -2.620   E(TOP)= -200.000  1 -1   232
             APW+lo
:E0_0003: E( 0)=    0.6412
             LOCAL ORBITAL
:E1_0003: E( 1)=    0.2412
             APW+lo

       K=   0.00000   0.00000   0.00000            1
:RKM  : MATRIX SIZE  1213LOs:  36  RKM= 7.97  WEIGHT= 1.00  PGR:    
       EIGENVALUES ARE:
:EIG00001:      -4.6904849   -4.6738153   -4.6738153   -1.0057391   -0.9086391
:EIG00006:      -0.6099516   -0.6099516   -0.5984339   -0.5778879   -0.5778879
:EIG00011:      -0.0848193    0.1721402    0.1941962    0.1941962    0.2008389
:EIG00016:       0.2134789    0.2134789    0.2789839    0.2789839    0.3637526
:EIG00021:       0.3637526    0.4381435    0.7327917    0.8188299    1.2432272
:EIG00026:       1.2432272    1.3134644    1.5094454    1.5094454    1.5358151
:EIG00031:       1.5504824    1.5504824    1.5554648    1.7141059    1.8566945
:EIG00036:       1.8566945
       ********************************************************

:KPT   :      NUMBER OF K-POINTS:    32
       Insulator, EF-inconsistency corrected
:GAP  :    0.0543 Ry =     0.738 eV   (provided you have a proper k-mesh)
         Bandranges (emin - emax) and occupancy:
:BAN00011:  11   -0.084819    0.001847  2.00000000
:BAN00012:  12   -0.050973    0.172140  2.00000000
:BAN00013:  13    0.043491    0.194196  2.00000000
:BAN00014:  14    0.088640    0.194196  2.00000000
:BAN00015:  15    0.136216    0.212156  2.00000000
:BAN00016:  16    0.187938    0.262446  2.00000000
:BAN00017:  17    0.213479    0.283567  2.00000000
:BAN00018:  18    0.274769    0.304523  2.00000000
:BAN00019:  19    0.278850    0.317881  2.00000000
:BAN00020:  20    0.317299    0.372525  2.00000000
:BAN00021:  21    0.329679    0.383877  2.00000000
:BAN00022:  22    0.438144    0.782934  0.00000000
:BAN00023:  23    0.670022    0.791898  0.00000000
:BAN00024:  24    0.785598    1.007002  0.00000000
:BAN00025:  25    0.928572    1.243227  0.00000000
:BAN00026:  26    1.047832    1.252709  0.00000000
        Energy to separate low and high energystates:   -0.13482


:NOE  : NUMBER OF ELECTRONS          =  42.000

:FER  : F E R M I - ENERGY(TETRAH.M.)=   0.3838770916
:GMA  : POTENTIAL AND CHARGE CUT-OFF  12.00 Ry**.5




:POS001: ATOM   -1 X,Y,Z = 0.00000 0.00000 0.00000  MULT= 1  ZZ= 29.000  Cu1       

       LMMAX  7
       LM=   0 0  2 0  4 0  4 3  6 0  6 3  6 6

:CHA001: TOTAL VALENCE CHARGE INSIDE SPHERE   1 =  15.5230    (RMT=  2.0000 )
:PCS001: PARTIAL CHARGES SPHERE =  1 S,P,D,F,PZ,PXY, D-Z2,D-XY,X2Y2,D-XZ,YZ 
:QTL001: 0.2835 6.1490 9.0646 0.0194 2.1207 4.0282 0.0000 1.6318 3.6827 3.7502 0.0000 0.0000
        Q-s-low E-s-low   Q-p-low E-p-low   Q-d-low E-d-low   Q-f-low E-f-low
:EPL001:  0.0252 -0.8689    6.0099 -4.6628    0.0328 -0.8532    0.0039 -0.8784
        Q-s-hi  E-s-hi    Q-p-hi  E-p-hi    Q-d-hi  E-d-hi    Q-f-hi  E-f-hi 
:EPH001:  0.2583  0.1972    0.1391  0.1409    9.0318  0.2760    0.0155  0.1397
:VZZ001: EFG INSIDE SPHERE   1 =    -9.363602      UP TO R =   2.00000




:POS002: ATOM   -2 X,Y,Z = 0.50000 0.50000 0.50000  MULT= 1  ZZ= 49.000  In1       

       LMMAX  7
       LM=   0 0  2 0  4 0  4 3  6 0  6 3  6 6

:CHA002: TOTAL VALENCE CHARGE INSIDE SPHERE   2 =  10.2264    (RMT=  2.1300 )
:PCS002: PARTIAL CHARGES SPHERE =  2 S,P,D,F,PZ,PXY, D-Z2,D-XY,X2Y2,D-XZ,YZ 
:QTL002: 0.3465 0.2648 9.5748 0.0334 0.0769 0.1879 0.0000 1.8990 3.8328 3.8430 0.0000 0.0000
        Q-s-low E-s-low   Q-p-low E-p-low   Q-d-low E-d-low   Q-f-low E-f-low
:EPL002:  0.0308 -0.9449    0.0292 -0.9007    9.2508 -0.5866    0.0042 -0.8984
        Q-s-hi  E-s-hi    Q-p-hi  E-p-hi    Q-d-hi  E-d-hi    Q-f-hi  E-f-hi 
:EPH002:  0.3157 -0.0151    0.2356  0.1119    0.3240  0.1517    0.0292  0.1539
:VZZ002: EFG INSIDE SPHERE   2 =     7.937826      UP TO R =   2.13000




:POS003: ATOM   -3 X,Y,Z = 0.10553 0.10553 0.10553  MULT= 2  ZZ=  8.000  O 1       

       LMMAX 12
       LM=   0 0  1 0  2 0  3 0  3 3  4 0  4 3  5 0  5 3  6 0  6 3  6 6

:CHA003: TOTAL VALENCE CHARGE INSIDE SPHERE   3 =   4.4705    (RMT=  1.4000 )
:PCS003: PARTIAL CHARGES SPHERE =  3 S,P,D,F,PZ,PXY, D-Z2,D-XY,X2Y2,D-XZ,YZ 
:QTL003: 1.3925 3.0702 0.0065 0.0010 1.0098 2.0605 0.0000 0.0016 0.0014 0.0036 0.0000 0.0000
        Q-s-low E-s-low   Q-p-low E-p-low   Q-d-low E-d-low   Q-f-low E-f-low
:EPL003:  1.3447 -0.9226    0.0479 -0.5966    0.0017 -0.7357    0.0003 -0.9057
        Q-s-hi  E-s-hi    Q-p-hi  E-p-hi    Q-d-hi  E-d-hi    Q-f-hi  E-f-hi 
:EPH003:  0.0478  0.0734    3.0224  0.1405    0.0048  0.2170    0.0007  0.2323
:VZZ003: EFG INSIDE SPHERE   3 =     1.654586      UP TO R =   1.40000

:CHA  : TOTAL VALENCE CHARGE INSIDE UNIT CELL =      42.000000

:SUM  : SUM OF EIGENVALUES =         -33.412172827


        1.ATOM      Cu1                   5 CORE STATES
:1S 001: 1S                -649.806496262 Ry
:2S 001: 2S                 -77.494089726 Ry
:2PP001: 2P*                -67.812841637 Ry
:2P 001: 2P                 -66.306405744 Ry
:3S 001: 3S                  -7.813185052 Ry

        2.ATOM      In1                  12 CORE STATES
:1S 002: 1S               -2037.811475893 Ry
:2S 002: 2S                -304.341522431 Ry
:2PP002: 2P*               -283.751580235 Ry
:2P 002: 2P                -268.252237502 Ry
:3S 002: 3S                 -57.101082139 Ry
:3PP002: 3P*                -48.793889500 Ry
:3P 002: 3P                 -45.994450408 Ry
:3DD002: 3D*                -31.306771084 Ry
:3D 002: 3D                 -30.733283533 Ry
:4S 002: 4S                  -7.991923597 Ry
:4PP002: 4P*                 -5.281829629 Ry
:4P 002: 4P                  -4.794300395 Ry

        3.ATOM      O 1                   1 CORE STATES
       CORE-FORCE in mRy/a.u. = |F|      Fx             Fy             Fz
:FCO003:   3.ATOM     40.295295683      0.000000000      0.000000000    -40.295295683

:1S 003: 1S                 -36.719151660 Ry
:CINT001 Core Integral Atom   1   11.998529
:CINT002 Core Integral Atom   2   35.974263
:CINT003 Core Integral Atom   3    1.999999

       DENSITY AT NUCLEUS
        JATOM        VALENCE       SEMI-CORE          CORE           TOTAL
:RTO001:   1        8.138213        0.000000    22631.407583    22639.545797
:RTO002:   2       39.076406        0.000000   236274.753768   236313.830173
:RTO003:   3       15.008551        0.000000      304.000747      319.009298
     
       CHARGES OF NEW CHARGE DENSITY
:NTO   : INTERSTITIAL CHARGE =     7.309602
:NTO001: CHARGE SPHERE  1    =    27.521506
:NTO002: CHARGE SPHERE  2    =    46.200619
:NTO003: CHARGE SPHERE  3    =     6.470522

:NEC01: NUCLEAR AND ELECTRONIC CHARGE     94.00000    93.97277
     
       CHARGES OF OLD CHARGE DENSITY
:OTO   : INTERSTITIAL CHARGE =     7.402097
:OTO001: CHARGE SPHERE  1    =    27.327491
:OTO002: CHARGE SPHERE  2    =    46.239973
:OTO003: CHARGE SPHERE  3    =     6.515219

:NEC02: NUCLEAR AND ELECTRONIC CHARGE     94.00000    94.00000
     
       CONVERGENCE TEST
:DTO001: DIFFERENCE IN SPHERE  1 =  0.4173610
[...]
:PTO010:     -3   -3   -2  4.99563788E-02  1.188E-08  4.306E-08
:PTO011:     -1    0    1  6.13427507E-02 -8.394E-09 -8.054E-09
:PTO012:     -2   -1    0 -3.26707215E-02  1.240E-08  9.271E-09

:ENE  : ********** TOTAL ENERGY IN Ry =       -15377.74434363

       TOTAL FORCE IN mRy/a.u. = |F|     Fx             Fy             Fz     with/without FOR in case.in2
:FOR001:   1.ATOM          0.000          0.000          0.000          0.000 partial forces
:FOR002:   2.ATOM          0.000          0.000          0.000          0.000 partial forces
:FOR003:   3.ATOM          3.379          0.000          0.000          3.379 partial forces
       TOTAL FORCE WITH RESPECT TO GLOBAL CARTESIAN COORDINATES:
:FCA001:   1.ATOM                         0.000          0.000          0.000 partial forces
:FCA002:   2.ATOM                         0.000          0.000          0.000 partial forces
:FCA003:   3.ATOM                         0.000          0.000          3.379 partial forces
       TOTAL FORCE WITH RESPECT TO THE GLOBAL COORDINATE SYSTEM:
:FGL001:   1.ATOM                 0.000000000     0.000000000     0.000000000 partial forces
:FGL002:   2.ATOM                 0.000000000     0.000000000     0.000000000 partial forces
:FGL003:   3.ATOM                 3.379435785     3.379435785     3.379435785 partial forces


            ---------
:ITE023: 23. ITERATION
            ---------

:NATO :    3 INDEPENDENT AND    4 TOTAL ATOMS IN UNITCELL
       SUBSTANCE: CuInO2 ShimodeM00                                           

       LATTICE                      = R   
:POT  : POTENTIAL OPTION EX_PBE EC_PBE VX_PBE VC_PBE
:LAT  : LATTICE CONSTANTS=  6.22095  6.22095 32.85838
:VOL  : UNIT CELL VOLUME =     367.08653
       MODE OF CALCULATION IS       = RELA
       NON-SPINPOLARIZED CALCULATION
:IFFT  : FFT-parameters:   90   90   90 Factor: 2.00
       ATOMNUMBER=  1 Cu1        VCOUL-ZERO =  0.31835E+00
:EFG001:                        EFG         =    -6.15134   *10**21  V / m**2
                               V20  TOT/SRF=    -5.32722     0.20243
                               V22  TOT/SRF=     0.00000     0.00000
                               V22M TOT/SRF=     0.00000     0.00000
                               V21  TOT/SRF=     0.00000     0.00000
                               V21M TOT/SRF=     0.00000     0.00000

              3.07567    0.00000    0.00000        3.07567    0.00000    0.00000
              0.00000    3.07567    0.00000        0.00000    3.07567    0.00000
              0.00000    0.00000   -6.15134        0.00000    0.00000   -6.15134

         MAIN DIRECTIONS OF THE EFG   1.0000  0.0000  0.0000
                                      0.0000  1.0000  0.0000
                                      0.0000  0.0000  1.0000
:ANG001:  ANGLE WITH OLD X-AXIS =         0.0

:ETA001:                         ASYMM. ETA =     0.00000


       ATOMNUMBER=  2 In1        VCOUL-ZERO =  0.86384E-02
:EFG002:                        EFG         =     8.04858   *10**21  V / m**2
                               V20  TOT/SRF=     6.97028    -0.00255
                               V22  TOT/SRF=     0.00000     0.00000
                               V22M TOT/SRF=     0.00000     0.00000
                               V21  TOT/SRF=     0.00000     0.00000
                               V21M TOT/SRF=     0.00000     0.00000

             -4.02429    0.00000    0.00000       -4.02429    0.00000    0.00000
              0.00000   -4.02429    0.00000        0.00000   -4.02429    0.00000
              0.00000    0.00000    8.04858        0.00000    0.00000    8.04858

         MAIN DIRECTIONS OF THE EFG   1.0000  0.0000  0.0000
                                      0.0000  1.0000  0.0000
                                      0.0000  0.0000  1.0000
:ANG002:  ANGLE WITH OLD X-AXIS =         0.0

:ETA002:                         ASYMM. ETA =     0.00000


       ATOMNUMBER=  3 O 1        VCOUL-ZERO =  0.16838E+00
:EFG003:                        EFG         =     1.74169   *10**21  V / m**2
                               V20  TOT/SRF=     1.50834     0.32736
                               V22  TOT/SRF=     0.00000     0.00000
                               V22M TOT/SRF=     0.00000     0.00000
                               V21  TOT/SRF=     0.00000     0.00000
                               V21M TOT/SRF=     0.00000     0.00000

             -0.87084    0.00000    0.00000       -0.87084    0.00000    0.00000
              0.00000   -0.87084    0.00000        0.00000   -0.87084    0.00000
              0.00000    0.00000    1.74169        0.00000    0.00000    1.74169

         MAIN DIRECTIONS OF THE EFG   1.0000  0.0000  0.0000
                                      0.0000  1.0000  0.0000
                                      0.0000  0.0000  1.0000
:ANG003:  ANGLE WITH OLD X-AXIS =         0.0

:ETA003:                         ASYMM. ETA =     0.00000


     HELLMANN-FEYNMAN-FORCE IN mRy/a.u. = |F|  Fx       Fy             Fz
:FHF001:   1.ATOM      0.000000000      0.000000000      0.000000000      0.000000000

     HELLMANN-FEYNMAN-FORCE IN mRy/a.u. = |F|  Fx       Fy             Fz
:FHF002:   2.ATOM      0.000000000      0.000000000      0.000000000      0.000000000

     HELLMANN-FEYNMAN-FORCE IN mRy/a.u. = |F|  Fx       Fy             Fz
:FHF003:   3.ATOM     49.009530326      0.000000000      0.000000000     49.009530326

:FIT001: LUSE= 13 SIGMA OF V-XC FIT FOR ATOM  1  0.7945846E-02
:FIT001: LUSE= 13 SIGMA OF V-XC FIT FOR ATOM  1  0.7945846E-02
:FIT002: LUSE= 13 SIGMA OF V-XC FIT FOR ATOM  2  0.8564340E-02
:FIT002: LUSE= 13 SIGMA OF V-XC FIT FOR ATOM  2  0.8564340E-02
:FIT003: LUSE= 13 SIGMA OF V-XC FIT FOR ATOM  3  0.1316993E-03
:FIT003: LUSE= 13 SIGMA OF V-XC FIT FOR ATOM  3  0.1316993E-03
:DEN  : DENSITY INTEGRAL  =         -6252.56943648   (Ry)
       ELS_POTENTIAL_AT Z=0 and Z=0.5:   0.00000   0.00000
       ELS_POTENTIAL_AT Y=0 and Y=0.5:   0.00000   0.00000
:VZERO:v0,v0c,v0x  -0.74456   0.00000  -0.74456 v5,v5c,v5x  -0.74456   0.00000  -0.74456
:VZERY:v0,v0c,v0x  -0.74456   0.00000  -0.74456 v5,v5c,v5x  -0.74456   0.00000  -0.74456
:VZERX:v0,v0c,v0x  -1.73527  -0.66034  -1.07493 v5,v5c,v5x  -0.91325  -0.51420  -0.39905

          ATOMIC SPHERE DEPENDENT PARAMETERS FOR ATOM  Cu1       
:e__0001: OVERALL ENERGY PARAMETER IS    0.2317
          OVERALL BASIS SET ON ATOM IS LAPW
:E1_0001: E( 1)=    0.2317
             APW+lo
:E1_0001: E( 1)=   -4.6202   E(BOTTOM)=   -4.688   E(TOP)=   -4.553  1  2   177
             LOCAL ORBITAL
:E2_0001: E( 2)=    0.3002   E(BOTTOM)=   -0.033   E(TOP)=    0.634  0  1   131
             APW+lo
:E0_0001: E( 0)=    0.2317
             APW+lo

          ATOMIC SPHERE DEPENDENT PARAMETERS FOR ATOM  In1       
:e__0002: OVERALL ENERGY PARAMETER IS    0.2317
          OVERALL BASIS SET ON ATOM IS LAPW
:E2_0002: E( 2)=   -0.6260   E(BOTTOM)=   -1.037   E(TOP)=   -0.215  1  2   142
             APW+lo
:E2_0002: E( 2)=    0.6317
             LOCAL ORBITAL
:E0_0002: E( 0)=    0.2317
             APW+lo
:E1_0002: E( 1)=    0.2317
             APW+lo

          ATOMIC SPHERE DEPENDENT PARAMETERS FOR ATOM  O 1       
:e__0003: OVERALL ENERGY PARAMETER IS    0.2317
          OVERALL BASIS SET ON ATOM IS LAPW
:E0_0003: E( 0)=   -1.5500   E(BOTTOM)=   -2.617   E(TOP)= -200.000  1 -1   229
             APW+lo
:E0_0003: E( 0)=    0.6317
             LOCAL ORBITAL
:E1_0003: E( 1)=    0.2317
             APW+lo

       K=   0.00000   0.00000   0.00000            1
:RKM  : MATRIX SIZE  1213LOs:  36  RKM= 7.97  WEIGHT= 1.00  PGR:    
       EIGENVALUES ARE:
:EIG00001:      -4.6189181   -4.5988431   -4.5988431   -1.0060085   -0.9093233
:EIG00006:      -0.6111808   -0.6111808   -0.6014707   -0.5806203   -0.5806203
:EIG00011:      -0.0772459    0.1732281    0.2105979    0.2105979    0.2143405
:EIG00016:       0.2143405    0.2326733    0.3423988    0.3423988    0.4048498
:EIG00021:       0.4048498    0.4622805    0.7356871    0.8320611    1.2438011
:EIG00026:       1.2438011    1.3221435    1.5278201    1.5278201    1.5429380
:EIG00031:       1.5582160    1.5582160    1.5622292    1.7222641    1.8646411
:EIG00036:       1.8646411
       ********************************************************

:KPT   :      NUMBER OF K-POINTS:    32
       Insulator, EF-inconsistency corrected
:GAP  :    0.0306 Ry =     0.416 eV   (provided you have a proper k-mesh)
         Bandranges (emin - emax) and occupancy:
:BAN00011:  11   -0.077246    0.002469  2.00000000
:BAN00012:  12   -0.043607    0.173228  2.00000000
:BAN00013:  13    0.045222    0.210598  2.00000000
:BAN00014:  14    0.096392    0.210598  2.00000000
:BAN00015:  15    0.136437    0.237112  2.00000000
:BAN00016:  16    0.201738    0.264022  2.00000000
:BAN00017:  17    0.232673    0.345496  2.00000000
:BAN00018:  18    0.335645    0.368375  2.00000000
:BAN00019:  19    0.342231    0.371322  2.00000000
:BAN00020:  20    0.371514    0.411415  2.00000000
:BAN00021:  21    0.380586    0.431691  2.00000000
:BAN00022:  22    0.462280    0.797336  0.00000000
:BAN00023:  23    0.696134    0.797871  0.00000000
:BAN00024:  24    0.784564    1.012023  0.00000000
:BAN00025:  25    0.941654    1.243801  0.00000000
:BAN00026:  26    1.055192    1.264803  0.00000000
        Energy to separate low and high energystates:   -0.12725


:NOE  : NUMBER OF ELECTRONS          =  42.000

:FER  : F E R M I - ENERGY(TETRAH.M.)=   0.4316906362
:GMA  : POTENTIAL AND CHARGE CUT-OFF  12.00 Ry**.5




:POS001: ATOM   -1 X,Y,Z = 0.00000 0.00000 0.00000  MULT= 1  ZZ= 29.000  Cu1       

       LMMAX  7
       LM=   0 0  2 0  4 0  4 3  6 0  6 3  6 6

:CHA001: TOTAL VALENCE CHARGE INSIDE SPHERE   1 =  15.3803    (RMT=  2.0000 )
:PCS001: PARTIAL CHARGES SPHERE =  1 S,P,D,F,PZ,PXY, D-Z2,D-XY,X2Y2,D-XZ,YZ 
:QTL001: 0.2827 6.1459 8.9258 0.0194 2.1173 4.0285 0.0000 1.5562 3.6448 3.7248 0.0000 0.0000
        Q-s-low E-s-low   Q-p-low E-p-low   Q-d-low E-d-low   Q-f-low E-f-low
:EPL001:  0.0243 -0.8698    6.0087 -4.5897    0.0306 -0.8570    0.0039 -0.8798
        Q-s-hi  E-s-hi    Q-p-hi  E-p-hi    Q-d-hi  E-d-hi    Q-f-hi  E-f-hi 
:EPH001:  0.2584  0.2189    0.1371  0.1475    8.8953  0.3375    0.0155  0.1415
:VZZ001: EFG INSIDE SPHERE   1 =    -6.503908      UP TO R =   2.00000




:POS002: ATOM   -2 X,Y,Z = 0.50000 0.50000 0.50000  MULT= 1  ZZ= 49.000  In1       

       LMMAX  7
       LM=   0 0  2 0  4 0  4 3  6 0  6 3  6 6

:CHA002: TOTAL VALENCE CHARGE INSIDE SPHERE   2 =  10.2304    (RMT=  2.1300 )
:PCS002: PARTIAL CHARGES SPHERE =  2 S,P,D,F,PZ,PXY, D-Z2,D-XY,X2Y2,D-XZ,YZ 
:QTL002: 0.3491 0.2651 9.5757 0.0336 0.0769 0.1883 0.0000 1.8993 3.8332 3.8432 0.0000 0.0000
        Q-s-low E-s-low   Q-p-low E-p-low   Q-d-low E-d-low   Q-f-low E-f-low
:EPL002:  0.0309 -0.9455    0.0292 -0.9012    9.2528 -0.5888    0.0042 -0.8988
        Q-s-hi  E-s-hi    Q-p-hi  E-p-hi    Q-d-hi  E-d-hi    Q-f-hi  E-f-hi 
:EPH002:  0.3182 -0.0116    0.2359  0.1123    0.3229  0.1531    0.0294  0.1552
:VZZ002: EFG INSIDE SPHERE   2 =     8.086280      UP TO R =   2.13000




:POS003: ATOM   -3 X,Y,Z = 0.10553 0.10553 0.10553  MULT= 2  ZZ=  8.000  O 1       

       LMMAX 12
       LM=   0 0  1 0  2 0  3 0  3 3  4 0  4 3  5 0  5 3  6 0  6 3  6 6

:CHA003: TOTAL VALENCE CHARGE INSIDE SPHERE   3 =   4.4985    (RMT=  1.4000 )
:PCS003: PARTIAL CHARGES SPHERE =  3 S,P,D,F,PZ,PXY, D-Z2,D-XY,X2Y2,D-XZ,YZ 
:QTL003: 1.3945 3.0960 0.0068 0.0010 1.0221 2.0739 0.0000 0.0015 0.0014 0.0039 0.0000 0.0000
        Q-s-low E-s-low   Q-p-low E-p-low   Q-d-low E-d-low   Q-f-low E-f-low
:EPL003:  1.3473 -0.9230    0.0477 -0.5988    0.0017 -0.7392    0.0003 -0.9087
        Q-s-hi  E-s-hi    Q-p-hi  E-p-hi    Q-d-hi  E-d-hi    Q-f-hi  E-f-hi 
:EPH003:  0.0471  0.0750    3.0483  0.1401    0.0051  0.2656    0.0007  0.2872
:VZZ003: EFG INSIDE SPHERE   3 =     1.317027      UP TO R =   1.40000

:CHA  : TOTAL VALENCE CHARGE INSIDE UNIT CELL =      42.000000

:SUM  : SUM OF EIGENVALUES =         -32.389362776


        1.ATOM      Cu1                   5 CORE STATES
:1S 001: 1S                -649.700686741 Ry
:2S 001: 2S                 -77.391801993 Ry
:2PP001: 2P*                -67.709459116 Ry
:2P 001: 2P                 -66.203134910 Ry
:3S 001: 3S                  -7.737192716 Ry

        2.ATOM      In1                  12 CORE STATES
:1S 002: 1S               -2037.812665932 Ry
:2S 002: 2S                -304.339200540 Ry
:2PP002: 2P*               -283.749675390 Ry
:2P 002: 2P                -268.250206147 Ry
:3S 002: 3S                 -57.097460382 Ry
:3PP002: 3P*                -48.790317622 Ry
:3P 002: 3P                 -45.990844055 Ry
:3DD002: 3D*                -31.303143507 Ry
:3D 002: 3D                 -30.729645178 Ry
:4S 002: 4S                  -7.991428580 Ry
:4PP002: 4P*                 -5.282067839 Ry
:4P 002: 4P                  -4.794946137 Ry

        3.ATOM      O 1                   1 CORE STATES
       CORE-FORCE in mRy/a.u. = |F|      Fx             Fy             Fz
:FCO003:   3.ATOM     45.627518709      0.000000000      0.000000000    -45.627518709

:1S 003: 1S                 -36.758665144 Ry
:CINT001 Core Integral Atom   1   11.998492
:CINT002 Core Integral Atom   2   35.974199
:CINT003 Core Integral Atom   3    1.999999

       DENSITY AT NUCLEUS
        JATOM        VALENCE       SEMI-CORE          CORE           TOTAL
:RTO001:   1        8.116714        0.000000    22630.668550    22638.785264
:RTO002:   2       39.473483        0.000000   236274.538867   236314.012350
:RTO003:   3       15.071394        0.000000      304.063932      319.135327
     
       CHARGES OF NEW CHARGE DENSITY
:NTO   : INTERSTITIAL CHARGE =     7.392197
:NTO001: CHARGE SPHERE  1    =    27.378800
:NTO002: CHARGE SPHERE  2    =    46.204629
:NTO003: CHARGE SPHERE  3    =     6.498521

:NEC01: NUCLEAR AND ELECTRONIC CHARGE     94.00000    93.97267
     
       CHARGES OF OLD CHARGE DENSITY
:OTO   : INTERSTITIAL CHARGE =     7.419528
:OTO001: CHARGE SPHERE  1    =    27.378801
:OTO002: CHARGE SPHERE  2    =    46.204628
:OTO003: CHARGE SPHERE  3    =     6.498522

:NEC02: NUCLEAR AND ELECTRONIC CHARGE     94.00000    94.00000
     
       CONVERGENCE TEST
:DTO001: DIFFERENCE IN SPHERE  1 =  0.0000031
:DTO002: DIFFERENCE IN SPHERE  2 =  0.0000027
:DTO003: DIFFERENCE IN SPHERE  3 =  0.0000007

:DIS  :  CHARGE DISTANCE       ( 0.0000031 for atom    1 spin 1)      0.0000018
:BIG check (qbig,qrms,qtot)    0.104D-05   0.151D-05   0.181D-05
 
******************************************************
* MULTISECANT MIXING VER6 RELEASE 6.0 OPTIONS        *
* Standard Mode with controls                        *
* Regularization       1.000E-06                     *
* Trust Region Control Active                        *
* Max Number of Memory Steps    8                    *
******************************************************
 
:PLANE:  INTERSTITIAL TOTAL      1.99846 DISTAN  3.503E-05 % 
:CHARG:  CLM CHARGE   /ATOM    107.21815 DISTAN  1.673E-06 % 
 
 Step History DMIX, Red, Pred, Trust, FRMS, FABS
 16  2.0000E-01  5.6679E-01  7.7732E-01  4.8721E+00
 17  2.0000E-01  3.9304E-01  4.1870E-01  4.7386E+00
 18  2.0000E-01  3.5615E-01  5.3685E-01  4.6544E+00
 19  2.0000E-01  4.1038E-01  5.9429E-01  4.8216E+00
 20  2.0000E-01  6.6999E-01  9.6103E-01  4.6499E+00
 21  2.0616E-01  3.7425E-01  5.2648E-01  5.4977E+00
 22  2.0542E-01  4.6917E-01  7.0870E-01  5.6466E+00
 23  2.0844E-01  1.0000E+00  8.1040E-01  5.7089E+00
  
:NORMS:  Nuclear, Spectral, Froebius, Shanno-Pua   0.1218E+01  0.9432E+00  0.1117E+01  0.9062E+00
:INFO :  Number of Memory Steps    8 Skipping   14
:INFO :  SLambda=    1.3895718  Max    1.3895718

Eigenvalues, unscaled except for SY+YY
   #     SY Real        SY Imag          SS             YY         SY+YY Real      SY+YY Imag
   1   2.893801E+00   0.000000E+00   3.177730E+00   2.826911E+00   6.841697E+00   0.000000E+00
   2   1.612383E+00   0.000000E+00   1.454766E+00   1.946857E+00   4.185724E+00   0.000000E+00
   3   1.067114E+00   0.000000E+00   9.856935E-01   1.256394E+00   2.725164E+00   0.000000E+00
   4   7.059606E-01   0.000000E+00   4.949386E-01   1.140683E+00   2.104654E+00   0.000000E+00
   5   2.771561E-01   0.000000E+00   1.737867E-01   5.079813E-01   9.183992E-01   0.000000E+00
   6   1.341068E-01   0.000000E+00   1.091439E-01   7.637421E-04   1.441236E-03   0.000000E+00
   7   5.294735E-02   0.000000E+00   1.967428E-02   1.456373E-01   2.359446E-01   0.000000E+00
   8   4.576421E-04   0.000000E+00   2.913000E-04   1.747718E-01   3.581464E-01   0.000000E+00
 
:INFO :  Singular value   6.848E+00 Weight  1.0000E+00 Projections  -1.345E-05  7.471E-07
:INFO :  Singular value   4.186E+00 Weight  1.0000E+00 Projections   1.554E-05  4.700E-07
:INFO :  Singular value   2.724E+00 Weight  1.0000E+00 Projections   2.817E-05  1.202E-06
:INFO :  Singular value   2.105E+00 Weight  1.0000E+00 Projections  -4.222E-05  7.480E-07
:INFO :  Singular value   9.185E-01 Weight  1.0000E+00 Projections   1.018E-04 -7.758E-07
:INFO :  Singular value   3.596E-01 Weight  1.0000E+00 Projections  -9.578E-05 -6.068E-06
:INFO :  Singular value   2.347E-01 Weight  1.0000E+00 Projections   2.981E-05 -3.402E-06
:INFO :  Singular value   1.441E-03 Weight  1.0000E+00 Projections  -1.606E-05 -1.537E-04
 
:DIRM :  MEMORY 8/8 RESCALE   8.13 RED 0.561 PRED 0.810 NEXT 0.780
:INFO :  Blimit    5.562E+00  1.473E+00  1.000E+00  5.893E+00
:DIRP :  |MSR1|= 3.747E-06 |PRATT|= 5.690E-06 ANGLE=  30.9 DEGREES
:DIRQ :  |MSR1|= 2.255E-06 |PRATT|= 5.380E-06 ANGLE=  29.5 DEGREES
:DIR  :  |MSR1|= 4.373E-06 |PRATT|= 7.831E-06 ANGLE=  32.6 DEGREES
:MIX  :   MSE1   REGULARIZATION: 2.83E-06  GREED: 0.212  Newton 1.00  0.56                
     
       CHARGES OF MIXED CHARGE DENSITY
:CTO   : INTERSTITIAL CHARGE =     7.419528
:CTO001: CHARGE SPHERE  1    =    27.378801
:CTO002: CHARGE SPHERE  2    =    46.204629
:CTO003: CHARGE SPHERE  3    =     6.498522

:NEC03: NUCLEAR AND ELECTRONIC CHARGE     94.00000    94.00000

PW CHANGE     H    K    L       Current     Change     Residue
:PTO001:      0    0    0  6.08291580E-02  3.588E-09  5.726E-09
:PTO002:     -1   -1   -1 -2.70077527E-02  2.332E-09 -3.248E-09
:PTO003:     -2   -2   -2 -7.14379463E-04  7.421E-09  1.627E-08
:PTO004:     -1    0    0  8.60869314E-02  5.398E-09 -1.787E-09
:PTO005:     -1   -1    0  9.25971574E-02  1.948E-08  2.576E-08
:PTO006:     -2   -1   -1 -3.47973959E-02  1.841E-08  2.949E-08
:PTO007:     -2   -2   -1 -8.65906185E-02  5.108E-09  9.448E-09
:PTO008:     -3   -3   -3  2.32905691E-02  4.675E-09  7.253E-09
:PTO009:     -3   -2   -2 -1.80980152E-03  6.704E-09  1.242E-08
:PTO010:     -3   -3   -2  4.99563965E-02  1.766E-08  3.026E-08
:PTO011:     -1    0    1  6.13427534E-02  2.676E-09  2.169E-10
:PTO012:     -2   -1    0 -3.26707352E-02 -1.361E-08 -4.791E-09

:ENE  : ********** TOTAL ENERGY IN Ry =       -15377.74434363

       TOTAL FORCE IN mRy/a.u. = |F|     Fx             Fy             Fz     with/without FOR in case.in2
:FOR001:   1.ATOM          0.000          0.000          0.000          0.000 partial forces
:FOR002:   2.ATOM          0.000          0.000          0.000          0.000 partial forces
:FOR003:   3.ATOM          3.382          0.000          0.000          3.382 partial forces
       TOTAL FORCE WITH RESPECT TO GLOBAL CARTESIAN COORDINATES:
:FCA001:   1.ATOM                         0.000          0.000          0.000 partial forces
:FCA002:   2.ATOM                         0.000          0.000          0.000 partial forces
:FCA003:   3.ATOM                         0.000          0.000          3.382 partial forces
       TOTAL FORCE WITH RESPECT TO THE GLOBAL COORDINATE SYSTEM:
:FGL001:   1.ATOM                 0.000000000     0.000000000     0.000000000 partial forces
:FGL002:   2.ATOM                 0.000000000     0.000000000     0.000000000 partial forces
:FGL003:   3.ATOM                 3.382011617     3.382011617     3.382011617 partial forces
