
:LABEL1: Calculations in /home/stevezhang/work/CuMO2/convergence/CuAlO2/rkmax_6-scfk_4c/CuAlO2
:LABEL2: on MZ at Mon Jun 21 22:01:49 CST 2021
:LABEL3: using WIEN2k_14.2 (Release 15/10/2014) in /home/stevezhang/wien2k/v14.2
:LABEL4: using the command: run_lapw -ec 0.000000001


            ---------
:ITE001:  1. ITERATION
            ---------

:NATO :    3 INDEPENDENT AND    4 TOTAL ATOMS IN UNITCELL
       SUBSTANCE: CuAlO2 BenkoF84                                             

       LATTICE                      = R   
:POT  : POTENTIAL OPTION EX_PBE EC_PBE VX_PBE VC_PBE
:LAT  : LATTICE CONSTANTS=  5.40508  5.40508 32.03482
:VOL  : UNIT CELL VOLUME =     270.16967
       MODE OF CALCULATION IS       = RELA
       NON-SPINPOLARIZED CALCULATION
:IFFT  : FFT-parameters:   90   90   90 Factor: 2.00
       ATOMNUMBER=  1 Cu1        VCOUL-ZERO =  0.40699E+00
:EFG001:                        EFG         =     0.13780   *10**21  V / m**2
                               V20  TOT/SRF=     0.11934     0.33235
                               V22  TOT/SRF=     0.00000     0.00000
                               V22M TOT/SRF=     0.00000     0.00000
                               V21  TOT/SRF=     0.00000     0.00000
                               V21M TOT/SRF=     0.00000     0.00000

             -0.06890    0.00000    0.00000       -0.06890    0.00000    0.00000
              0.00000   -0.06890    0.00000        0.00000   -0.06890    0.00000
              0.00000    0.00000    0.13780        0.00000    0.00000    0.13780

         MAIN DIRECTIONS OF THE EFG   1.0000  0.0000  0.0000
                                      0.0000  1.0000  0.0000
                                      0.0000  0.0000  1.0000
:ANG001:  ANGLE WITH OLD X-AXIS =         0.0

:ETA001:                         ASYMM. ETA =     0.00000


       ATOMNUMBER=  2 Al1        VCOUL-ZERO = -0.82385E-01
:EFG002:                        EFG         =    -0.14341   *10**21  V / m**2
                               V20  TOT/SRF=    -0.12419    -0.19627
                               V22  TOT/SRF=     0.00000     0.00000
                               V22M TOT/SRF=     0.00000     0.00000
                               V21  TOT/SRF=     0.00000     0.00000
                               V21M TOT/SRF=     0.00000     0.00000

              0.07170    0.00000    0.00000        0.07170    0.00000    0.00000
              0.00000    0.07170    0.00000        0.00000    0.07170    0.00000
              0.00000    0.00000   -0.14341        0.00000    0.00000   -0.14341

         MAIN DIRECTIONS OF THE EFG   1.0000  0.0000  0.0000
                                      0.0000  1.0000  0.0000
                                      0.0000  0.0000  1.0000
:ANG002:  ANGLE WITH OLD X-AXIS =         0.0

:ETA002:                         ASYMM. ETA =     0.00000


       ATOMNUMBER=  3 O 1        VCOUL-ZERO =  0.17296E-01
:EFG003:                        EFG         =     0.24218   *10**21  V / m**2
                               V20  TOT/SRF=     0.20973     0.27378
                               V22  TOT/SRF=     0.00000     0.00000
                               V22M TOT/SRF=     0.00000     0.00000
                               V21  TOT/SRF=     0.00000     0.00000
                               V21M TOT/SRF=     0.00000     0.00000

             -0.12109    0.00000    0.00000       -0.12109    0.00000    0.00000
              0.00000   -0.12109    0.00000        0.00000   -0.12109    0.00000
              0.00000    0.00000    0.24218        0.00000    0.00000    0.24218

         MAIN DIRECTIONS OF THE EFG   1.0000  0.0000  0.0000
                                      0.0000  1.0000  0.0000
                                      0.0000  0.0000  1.0000
:ANG003:  ANGLE WITH OLD X-AXIS =         0.0

:ETA003:                         ASYMM. ETA =     0.00000


     HELLMANN-FEYNMAN-FORCE IN mRy/a.u. = |F|  Fx       Fy             Fz
:FHF001:   1.ATOM      0.000000000      0.000000000      0.000000000      0.000000000

     HELLMANN-FEYNMAN-FORCE IN mRy/a.u. = |F|  Fx       Fy             Fz
:FHF002:   2.ATOM      0.000000000      0.000000000      0.000000000      0.000000000

     HELLMANN-FEYNMAN-FORCE IN mRy/a.u. = |F|  Fx       Fy             Fz
:FHF003:   3.ATOM    632.587095840      0.000000000      0.000000000   -632.587095840

:FIT001: LUSE= 13 SIGMA OF V-XC FIT FOR ATOM  1  0.7569698E-02
:FIT001: LUSE= 13 SIGMA OF V-XC FIT FOR ATOM  1  0.7569698E-02
:FIT002: LUSE= 13 SIGMA OF V-XC FIT FOR ATOM  2  0.4811514E-02
:FIT002: LUSE= 13 SIGMA OF V-XC FIT FOR ATOM  2  0.4811514E-02
:FIT003: LUSE= 13 SIGMA OF V-XC FIT FOR ATOM  3  0.4855342E-04
:FIT003: LUSE= 13 SIGMA OF V-XC FIT FOR ATOM  3  0.4855342E-04
:DEN  : DENSITY INTEGRAL  =         -1791.58414138   (Ry)
       ELS_POTENTIAL_AT Z=0 and Z=0.5:   0.00000   0.00000
       ELS_POTENTIAL_AT Y=0 and Y=0.5:   0.00000   0.00000
:VZERO:v0,v0c,v0x  -0.83019   0.00000  -0.83019 v5,v5c,v5x  -0.83019   0.00000  -0.83019
:VZERY:v0,v0c,v0x  -0.83019   0.00000  -0.83019 v5,v5c,v5x  -0.83019   0.00000  -0.83019
:VZERX:v0,v0c,v0x  -2.47377  -1.25392  -1.21984 v5,v5c,v5x  -0.00990   0.44431  -0.45421

          ATOMIC SPHERE DEPENDENT PARAMETERS FOR ATOM  Cu1       
:e__0001: OVERALL ENERGY PARAMETER IS    0.3000
          OVERALL BASIS SET ON ATOM IS LAPW
:E1_0001: E( 1)=    0.3000
             APW+lo
:E1_0001: E( 1)=   -4.6487   E(BOTTOM)=   -4.714   E(TOP)=   -4.583  1  2   169
             LOCAL ORBITAL
:E2_0001: E( 2)=    0.2878   E(BOTTOM)=   -0.031   E(TOP)=    0.607  0  1   136
             APW+lo
:E0_0001: E( 0)=    0.3000
             APW+lo

          ATOMIC SPHERE DEPENDENT PARAMETERS FOR ATOM  Al1       
:e__0002: OVERALL ENERGY PARAMETER IS    0.3000
          OVERALL BASIS SET ON ATOM IS LAPW
:E1_0002: E( 1)=    0.3000
             APW+lo
:E1_0002: E( 1)=   -4.1253   E(BOTTOM)=   -4.231   E(TOP)=   -4.020  0  1   165
             LOCAL ORBITAL
:E0_0002: E( 0)=    0.3000
             APW+lo

          ATOMIC SPHERE DEPENDENT PARAMETERS FOR ATOM  O 1       
:e__0003: OVERALL ENERGY PARAMETER IS    0.3000
          OVERALL BASIS SET ON ATOM IS LAPW
:E0_0003: E( 0)=   -1.5500   E(BOTTOM)=   -2.792   E(TOP)= -200.000  1 -1   240
             APW+lo
:E0_0003: E( 0)=    0.7000
             LOCAL ORBITAL
:E1_0003: E( 1)=    0.3000
             APW+lo

       K=   0.00000   0.00000   0.00000            1
:RKM  : MATRIX SIZE   404LOs:  29  RKM= 5.99  WEIGHT= 1.00  PGR:    
       EIGENVALUES ARE:
:EIG00001:      -4.6408626   -4.6309910   -4.6309910   -4.1001312   -4.1001312
:EIG00006:      -4.0956003   -1.1954628   -1.0572902   -0.2089915    0.0649026
:EIG00011:       0.0649026    0.0700050    0.1342457    0.1342457    0.2218332
:EIG00016:       0.3273169    0.3273169    0.3618820    0.3618820    0.5749580
:EIG00021:       0.9049677    0.9520063    1.3468861    1.4898172    1.4898172
:EIG00026:       1.5584651    1.5873919    1.5873919    1.9075339    1.9670397
:EIG00031:       1.9670397
       ********************************************************

:KPT   :      NUMBER OF K-POINTS:    13
       Insulator, EF-inconsistency corrected
:GAP  :    0.1397 Ry =     1.900 eV   (provided you have a proper k-mesh)
         Bandranges (emin - emax) and occupancy:
:BAN00009:   9   -0.208992   -0.130728  2.00000000
:BAN00010:  10   -0.168345    0.064903  2.00000000
:BAN00011:  11   -0.093823    0.076955  2.00000000
:BAN00012:  12    0.007716    0.076955  2.00000000
:BAN00013:  13    0.031237    0.134246  2.00000000
:BAN00014:  14    0.051128    0.134246  2.00000000
:BAN00015:  15    0.221833    0.314462  2.00000000
:BAN00016:  16    0.321711    0.338215  2.00000000
:BAN00017:  17    0.327317    0.362236  2.00000000
:BAN00018:  18    0.346317    0.376466  2.00000000
:BAN00019:  19    0.357358    0.435229  2.00000000
:BAN00020:  20    0.574958    0.755856  0.00000000
:BAN00021:  21    0.769316    1.094054  0.00000000
:BAN00022:  22    0.952006    1.127783  0.00000000
:BAN00023:  23    1.110277    1.346886  0.00000000
:BAN00024:  24    1.224691    1.492487  0.00000000
        Energy to separate low and high energystates:   -0.25899


:NOE  : NUMBER OF ELECTRONS          =  38.000

:FER  : F E R M I - ENERGY(TETRAH.M.)=   0.4352288665
:GMA  : POTENTIAL AND CHARGE CUT-OFF  12.00 Ry**.5




:POS001: ATOM   -1 X,Y,Z = 0.00000 0.00000 0.00000  MULT= 1  ZZ= 29.000  Cu1       

       LMMAX  7
       LM=   0 0  2 0  4 0  4 3  6 0  6 3  6 6

:CHA001: TOTAL VALENCE CHARGE INSIDE SPHERE   1 =  15.4447    (RMT=  2.0000 )
:PCS001: PARTIAL CHARGES SPHERE =  1 S,P,D,F,PZ,PXY, D-Z2,D-XY,X2Y2,D-XZ,YZ 
:QTL001: 0.2114 6.1189 9.0909 0.0173 2.0926 4.0263 0.0000 1.6653 3.6770 3.7485 0.0000 0.0000
        Q-s-low E-s-low   Q-p-low E-p-low   Q-d-low E-d-low   Q-f-low E-f-low
:EPL001:  0.0133 -1.0832    5.9994 -4.6255    0.0169 -1.0816    0.0027 -1.0842
        Q-s-hi  E-s-hi    Q-p-hi  E-p-hi    Q-d-hi  E-d-hi    Q-f-hi  E-f-hi 
:EPH001:  0.1982  0.1310    0.1195  0.0514    9.0740  0.3279    0.0147  0.0245
:VZZ001: EFG INSIDE SPHERE   1 =    -4.977310      UP TO R =   2.00000




:POS002: ATOM   -2 X,Y,Z = 0.50000 0.50000 0.50000  MULT= 1  ZZ= 13.000  Al1       

       LMMAX  7
       LM=   0 0  2 0  4 0  4 3  6 0  6 3  6 6

:CHA002: TOTAL VALENCE CHARGE INSIDE SPHERE   2 =   6.5296    (RMT=  1.8000 )
:PCS002: PARTIAL CHARGES SPHERE =  2 S,P,D,F,PZ,PXY, D-Z2,D-XY,X2Y2,D-XZ,YZ 
:QTL002: 0.1874 6.2059 0.1124 0.0195 2.0586 4.1472 0.0000 0.0082 0.0483 0.0560 0.0000 0.0000
        Q-s-low E-s-low   Q-p-low E-p-low   Q-d-low E-d-low   Q-f-low E-f-low
:EPL002:  0.0301 -1.1403    6.0060 -4.0806    0.0154 -1.0578    0.0030 -1.0779
        Q-s-hi  E-s-hi    Q-p-hi  E-p-hi    Q-d-hi  E-d-hi    Q-f-hi  E-f-hi 
:EPH002:  0.1573 -0.1191    0.1999 -0.0204    0.0970  0.0299    0.0165  0.0465
:VZZ002: EFG INSIDE SPHERE   2 =     0.960674      UP TO R =   1.80000




:POS003: ATOM   -3 X,Y,Z = 0.10979 0.10979 0.10979  MULT= 2  ZZ=  8.000  O 1       

       LMMAX 12
       LM=   0 0  1 0  2 0  3 0  3 3  4 0  4 3  5 0  5 3  6 0  6 3  6 6

:CHA003: TOTAL VALENCE CHARGE INSIDE SPHERE   3 =   4.9525    (RMT=  1.4000 )
:PCS003: PARTIAL CHARGES SPHERE =  3 S,P,D,F,PZ,PXY, D-Z2,D-XY,X2Y2,D-XZ,YZ 
:QTL003: 1.4247 3.5205 0.0065 0.0007 1.1484 2.3720 0.0000 0.0015 0.0009 0.0041 0.0000 0.0000
        Q-s-low E-s-low   Q-p-low E-p-low   Q-d-low E-d-low   Q-f-low E-f-low
:EPL003:  1.3828 -1.0826    0.0064 -1.2772    0.0002 -2.6727    0.0001 -2.5122
        Q-s-hi  E-s-hi    Q-p-hi  E-p-hi    Q-d-hi  E-d-hi    Q-f-hi  E-f-hi 
:EPH003:  0.0419 -0.0588    3.5141  0.0078    0.0062  0.1865    0.0006  0.2345
:VZZ003: EFG INSIDE SPHERE   3 =     2.632010      UP TO R =   1.40000

:CHA  : TOTAL VALENCE CHARGE INSIDE UNIT CELL =      38.000000

:SUM  : SUM OF EIGENVALUES =         -53.533827075


        1.ATOM      Cu1                   5 CORE STATES
:1S 001: 1S                -649.705908784 Ry
:2S 001: 2S                 -77.430413341 Ry
:2PP001: 2P*                -67.744546428 Ry
:2P 001: 2P                 -66.238624905 Ry
:3S 001: 3S                  -7.770468709 Ry

        2.ATOM      Al1                   2 CORE STATES
:1S 002: 1S                -110.024687091 Ry
:2S 002: 2S                  -6.929853984 Ry

        3.ATOM      O 1                   1 CORE STATES
       CORE-FORCE in mRy/a.u. = |F|      Fx             Fy             Fz
:FCO003:   3.ATOM    160.099603853      0.000000000      0.000000000    160.099603853

:1S 003: 1S                 -36.976865335 Ry
:CINT001 Core Integral Atom   1   11.998557
:CINT002 Core Integral Atom   2    3.995890
:CINT003 Core Integral Atom   3    1.999999

       DENSITY AT NUCLEUS
        JATOM        VALENCE       SEMI-CORE          CORE           TOTAL
:RTO001:   1        5.925804        0.000000    22630.787822    22636.713626
:RTO002:   2        2.346236        0.000000     1486.726618     1489.072854
:RTO003:   3       15.605546        0.000000      303.968862      319.574408
     
       CHARGES OF NEW CHARGE DENSITY
:NTO   : INTERSTITIAL CHARGE =     6.120735
:NTO001: CHARGE SPHERE  1    =    27.443270
:NTO002: CHARGE SPHERE  2    =    10.525451
:NTO003: CHARGE SPHERE  3    =     6.952480

:NEC01: NUCLEAR AND ELECTRONIC CHARGE     58.00000    57.99442
     
       CHARGES OF OLD CHARGE DENSITY
:OTO   : INTERSTITIAL CHARGE =     7.173904
:OTO001: CHARGE SPHERE  1    =    27.282985
:OTO002: CHARGE SPHERE  2    =    10.843492
:OTO003: CHARGE SPHERE  3    =     6.350577

:NEC02: NUCLEAR AND ELECTRONIC CHARGE     58.00000    58.00154
     
       CONVERGENCE TEST
:DTO001: DIFFERENCE IN SPHERE  1 =  0.5884220
:DTO002: DIFFERENCE IN SPHERE  2 =  0.2947073
:DTO003: DIFFERENCE IN SPHERE  3 =  0.7696875

:DIS  :  CHARGE DISTANCE       ( 0.7696875 for atom    3 spin 1)      0.6056261
:BIG check (qbig,qrms,qtot)    0.257D+00   0.450D+00   0.606D+00
 
******************************************************
* MULTISECANT MIXING VER6 RELEASE 6.0 OPTIONS        *
* Standard Mode with controls                        *
* Regularization       1.000E-06                     *
* Trust Region Control Active                        *
* Max Number of Memory Steps    8                    *
******************************************************
 
:PLANE:  INTERSTITIAL TOTAL      1.68224 DISTAN  2.376E+01 % 
:CHARG:  CLM CHARGE   /ATOM     54.20733 DISTAN  1.712E+00 % 
:REDuction and DMIX in Broyd:    0.7957    0.1591
:DIRM :  MEMORY  0/ 8 RESCALES   1.00
:MIX  :   PRATT  REGULARIZATION: 1.00E-06  GREED: 0.035
     
       CHARGES OF MIXED CHARGE DENSITY
:CTO   : INTERSTITIAL CHARGE =     7.135757
:CTO001: CHARGE SPHERE  1    =    27.288595
:CTO002: CHARGE SPHERE  2    =    10.832360
:CTO003: CHARGE SPHERE  3    =     6.371644

:NEC03: NUCLEAR AND ELECTRONIC CHARGE     58.00000    58.00000

PW CHANGE     H    K    L       Current     Change     Residue
:PTO001:      0    0    0  6.75531965E-02 -3.388E-04 -9.681E-03
:PTO002:     -1   -1   -1 -1.80041518E-02 -2.579E-04 -7.370E-03
:PTO003:     -2   -2   -2 -2.39806486E-03 -3.360E-04 -9.600E-03
:PTO004:     -1    0    0  1.09216052E-01 -7.159E-05 -2.045E-03
:PTO005:     -1   -1    0  6.49397193E-02 -7.203E-04 -2.058E-02
:PTO006:     -2   -1   -1 -5.22644772E-02 -1.001E-03 -2.861E-02
:PTO007:     -2   -2   -1 -6.40793779E-02 -5.836E-04 -1.668E-02
:PTO008:     -3   -3   -3  2.94553074E-02 -1.683E-05 -4.810E-04
:PTO009:     -3   -2   -2  1.78680394E-02 -1.625E-04 -4.644E-03
:PTO010:     -3   -3   -2  5.21648740E-02 -2.947E-04 -8.419E-03
:PTO011:     -1    0    1  4.56778601E-02 -4.259E-04 -1.217E-02
:PTO012:     -4   -4   -4 -2.28071117E-03 -1.295E-04 -3.700E-03

:ENE  : ********** TOTAL ENERGY IN Ry =        -4097.19168609

       TOTAL FORCE IN mRy/a.u. = |F|     Fx             Fy             Fz     with/without FOR in case.in2
:FOR001:   1.ATOM          0.000          0.000          0.000          0.000 partial forces
:FOR002:   2.ATOM          0.000          0.000          0.000          0.000 partial forces
:FOR003:   3.ATOM        472.487          0.000          0.000       -472.487 partial forces
       TOTAL FORCE WITH RESPECT TO GLOBAL CARTESIAN COORDINATES:
:FCA001:   1.ATOM                         0.000          0.000          0.000 partial forces
:FCA002:   2.ATOM                         0.000          0.000          0.000 partial forces
:FCA003:   3.ATOM                         0.000          0.000       -472.487 partial forces
       TOTAL FORCE WITH RESPECT TO THE GLOBAL COORDINATE SYSTEM:
:FGL001:   1.ATOM                 0.000000000     0.000000000     0.000000000 partial forces
:FGL002:   2.ATOM                 0.000000000     0.000000000     0.000000000 partial forces
:FGL003:   3.ATOM              -472.487491987  -472.487491987  -472.487491987 partial forces


            ---------
:ITE002:  2. ITERATION
            ---------

:NATO :    3 INDEPENDENT AND    4 TOTAL ATOMS IN UNITCELL
       SUBSTANCE: CuAlO2 BenkoF84                                             

       LATTICE                      = R   
:POT  : POTENTIAL OPTION EX_PBE EC_PBE VX_PBE VC_PBE
:LAT  : LATTICE CONSTANTS=  5.40508  5.40508 32.03482
:VOL  : UNIT CELL VOLUME =     270.16967
       MODE OF CALCULATION IS       = RELA
       NON-SPINPOLARIZED CALCULATION
:IFFT  : FFT-parameters:   90   90   90 Factor: 2.00
       ATOMNUMBER=  1 Cu1        VCOUL-ZERO =  0.40190E+00
:EFG001:                        EFG         =    -0.04466   *10**21  V / m**2
                               V20  TOT/SRF=    -0.03867     0.31489
                               V22  TOT/SRF=     0.00000     0.00000
                               V22M TOT/SRF=     0.00000     0.00000
                               V21  TOT/SRF=     0.00000     0.00000
                               V21M TOT/SRF=     0.00000     0.00000

              0.02233    0.00000    0.00000        0.02233    0.00000    0.00000
              0.00000    0.02233    0.00000        0.00000    0.02233    0.00000
              0.00000    0.00000   -0.04466        0.00000    0.00000   -0.04466

         MAIN DIRECTIONS OF THE EFG   1.0000  0.0000  0.0000
                                      0.0000  1.0000  0.0000
                                      0.0000  0.0000  1.0000
:ANG001:  ANGLE WITH OLD X-AXIS =         0.0

:ETA001:                         ASYMM. ETA =     0.00000


       ATOMNUMBER=  2 Al1        VCOUL-ZERO = -0.83185E-01
:EFG002:                        EFG         =    -0.10259   *10**21  V / m**2
                               V20  TOT/SRF=    -0.08884    -0.18540
                               V22  TOT/SRF=     0.00000     0.00000
                               V22M TOT/SRF=     0.00000     0.00000
                               V21  TOT/SRF=     0.00000     0.00000
                               V21M TOT/SRF=     0.00000     0.00000

              0.05129    0.00000    0.00000        0.05129    0.00000    0.00000
              0.00000    0.05129    0.00000        0.00000    0.05129    0.00000
              0.00000    0.00000   -0.10259        0.00000    0.00000   -0.10259

         MAIN DIRECTIONS OF THE EFG   1.0000  0.0000  0.0000
                                      0.0000  1.0000  0.0000
                                      0.0000  0.0000  1.0000
:ANG002:  ANGLE WITH OLD X-AXIS =         0.0

:ETA002:                         ASYMM. ETA =     0.00000


       ATOMNUMBER=  3 O 1        VCOUL-ZERO =  0.28904E-01
:EFG003:                        EFG         =     0.33536   *10**21  V / m**2
                               V20  TOT/SRF=     0.29043     0.27231
                               V22  TOT/SRF=     0.00000     0.00000
                               V22M TOT/SRF=     0.00000     0.00000
                               V21  TOT/SRF=     0.00000     0.00000
                               V21M TOT/SRF=     0.00000     0.00000

             -0.16768    0.00000    0.00000       -0.16768    0.00000    0.00000
              0.00000   -0.16768    0.00000        0.00000   -0.16768    0.00000
              0.00000    0.00000    0.33536        0.00000    0.00000    0.33536

         MAIN DIRECTIONS OF THE EFG   1.0000  0.0000  0.0000
                                      0.0000  1.0000  0.0000
                                      0.0000  0.0000  1.0000
:ANG003:  ANGLE WITH OLD X-AXIS =         0.0

:ETA003:                         ASYMM. ETA =     0.00000


     HELLMANN-FEYNMAN-FORCE IN mRy/a.u. = |F|  Fx       Fy             Fz
:FHF001:   1.ATOM      0.000000000      0.000000000      0.000000000      0.000000000

     HELLMANN-FEYNMAN-FORCE IN mRy/a.u. = |F|  Fx       Fy             Fz
:FHF002:   2.ATOM      0.000000000      0.000000000      0.000000000      0.000000000

     HELLMANN-FEYNMAN-FORCE IN mRy/a.u. = |F|  Fx       Fy             Fz
:FHF003:   3.ATOM    598.717779988      0.000000000      0.000000000   -598.717779988

:FIT001: LUSE= 13 SIGMA OF V-XC FIT FOR ATOM  1  0.7585509E-02
:FIT001: LUSE= 13 SIGMA OF V-XC FIT FOR ATOM  1  0.7585509E-02
:FIT002: LUSE= 13 SIGMA OF V-XC FIT FOR ATOM  2  0.4811442E-02
:FIT002: LUSE= 13 SIGMA OF V-XC FIT FOR ATOM  2  0.4811442E-02
:FIT003: LUSE= 13 SIGMA OF V-XC FIT FOR ATOM  3  0.5205136E-04
:FIT003: LUSE= 13 SIGMA OF V-XC FIT FOR ATOM  3  0.5205136E-04
:DEN  : DENSITY INTEGRAL  =         -1792.19803614   (Ry)
       ELS_POTENTIAL_AT Z=0 and Z=0.5:   0.00000   0.00000
       ELS_POTENTIAL_AT Y=0 and Y=0.5:   0.00000   0.00000
:VZERO:v0,v0c,v0x  -0.82797   0.00000  -0.82797 v5,v5c,v5x  -0.82797   0.00000  -0.82797
:VZERY:v0,v0c,v0x  -0.82797   0.00000  -0.82797 v5,v5c,v5x  -0.82797   0.00000  -0.82797
:VZERX:v0,v0c,v0x  -2.45452  -1.23606  -1.21846 v5,v5c,v5x  -0.01924   0.42937  -0.44861

          ATOMIC SPHERE DEPENDENT PARAMETERS FOR ATOM  Cu1       
:e__0001: OVERALL ENERGY PARAMETER IS    0.2514
          OVERALL BASIS SET ON ATOM IS LAPW
:E1_0001: E( 1)=    0.2514
             APW+lo
:E1_0001: E( 1)=   -4.6390   E(BOTTOM)=   -4.705   E(TOP)=   -4.573  1  2   168
             LOCAL ORBITAL
:E2_0001: E( 2)=    0.2954   E(BOTTOM)=   -0.025   E(TOP)=    0.616  0  1   133
             APW+lo
:E0_0001: E( 0)=    0.2514
             APW+lo

          ATOMIC SPHERE DEPENDENT PARAMETERS FOR ATOM  Al1       
:e__0002: OVERALL ENERGY PARAMETER IS    0.2514
          OVERALL BASIS SET ON ATOM IS LAPW
:E1_0002: E( 1)=    0.2514
             APW+lo
:E1_0002: E( 1)=   -4.1318   E(BOTTOM)=   -4.237   E(TOP)=   -4.026  0  1   164
             LOCAL ORBITAL
:E0_0002: E( 0)=    0.2514
             APW+lo

          ATOMIC SPHERE DEPENDENT PARAMETERS FOR ATOM  O 1       
:e__0003: OVERALL ENERGY PARAMETER IS    0.2514
          OVERALL BASIS SET ON ATOM IS LAPW
:E0_0003: E( 0)=   -1.5500   E(BOTTOM)=   -2.773   E(TOP)= -200.000  1 -1   243
             APW+lo
:E0_0003: E( 0)=    0.6514
             LOCAL ORBITAL
:E1_0003: E( 1)=    0.2514
             APW+lo

       K=   0.00000   0.00000   0.00000            1
:RKM  : MATRIX SIZE   404LOs:  29  RKM= 5.99  WEIGHT= 1.00  PGR:    
       EIGENVALUES ARE:
:EIG00001:      -4.6306800   -4.6213394   -4.6213394   -4.1066000   -4.1066000
:EIG00006:      -4.1024481   -1.1809666   -1.0411465   -0.1978781    0.0807314
:EIG00011:       0.0807314    0.0857808    0.1513197    0.1513197    0.2232132
:EIG00016:       0.3339928    0.3339928    0.3705077    0.3705077    0.5822881
:EIG00021:       0.9085796    0.9594676    1.3480315    1.4921283    1.4921283
:EIG00026:       1.5637731    1.5905822    1.5905822    1.9049042
       ********************************************************

:KPT   :      NUMBER OF K-POINTS:    13
       Insulator, EF-inconsistency corrected
:GAP  :    0.1378 Ry =     1.875 eV   (provided you have a proper k-mesh)
         Bandranges (emin - emax) and occupancy:
:BAN00009:   9   -0.197878   -0.117947  2.00000000
:BAN00010:  10   -0.156428    0.080731  2.00000000
:BAN00011:  11   -0.081319    0.093354  2.00000000
:BAN00012:  12    0.022337    0.093354  2.00000000
:BAN00013:  13    0.045956    0.151320  2.00000000
:BAN00014:  14    0.066115    0.151320  2.00000000
:BAN00015:  15    0.223213    0.320677  2.00000000
:BAN00016:  16    0.329319    0.343816  2.00000000
:BAN00017:  17    0.333993    0.371227  2.00000000
:BAN00018:  18    0.354527    0.384006  2.00000000
:BAN00019:  19    0.365822    0.444454  2.00000000
:BAN00020:  20    0.582288    0.756906  0.00000000
:BAN00021:  21    0.774727    1.093893  0.00000000
:BAN00022:  22    0.959468    1.132608  0.00000000
:BAN00023:  23    1.111737    1.348032  0.00000000
:BAN00024:  24    1.229714    1.494913  0.00000000
        Energy to separate low and high energystates:   -0.24788


:NOE  : NUMBER OF ELECTRONS          =  38.000

:FER  : F E R M I - ENERGY(TETRAH.M.)=   0.4444543792
:GMA  : POTENTIAL AND CHARGE CUT-OFF  12.00 Ry**.5




:POS001: ATOM   -1 X,Y,Z = 0.00000 0.00000 0.00000  MULT= 1  ZZ= 29.000  Cu1       

       LMMAX  7
       LM=   0 0  2 0  4 0  4 3  6 0  6 3  6 6

:CHA001: TOTAL VALENCE CHARGE INSIDE SPHERE   1 =  15.4306    (RMT=  2.0000 )
:PCS001: PARTIAL CHARGES SPHERE =  1 S,P,D,F,PZ,PXY, D-Z2,D-XY,X2Y2,D-XZ,YZ 
:QTL001: 0.2184 6.1222 9.0665 0.0174 2.0941 4.0281 0.0000 1.6518 3.6700 3.7448 0.0000 0.0000
        Q-s-low E-s-low   Q-p-low E-p-low   Q-d-low E-d-low   Q-f-low E-f-low
:EPL001:  0.0136 -1.0670    5.9995 -4.6155    0.0171 -1.0654    0.0027 -1.0673
        Q-s-hi  E-s-hi    Q-p-hi  E-p-hi    Q-d-hi  E-d-hi    Q-f-hi  E-f-hi 
:EPH001:  0.2048  0.1411    0.1227  0.0659    9.0494  0.3349    0.0147  0.0400
:VZZ001: EFG INSIDE SPHERE   1 =    -4.860507      UP TO R =   2.00000




:POS002: ATOM   -2 X,Y,Z = 0.50000 0.50000 0.50000  MULT= 1  ZZ= 13.000  Al1       

       LMMAX  7
       LM=   0 0  2 0  4 0  4 3  6 0  6 3  6 6

:CHA002: TOTAL VALENCE CHARGE INSIDE SPHERE   2 =   6.5402    (RMT=  1.8000 )
:PCS002: PARTIAL CHARGES SPHERE =  2 S,P,D,F,PZ,PXY, D-Z2,D-XY,X2Y2,D-XZ,YZ 
:QTL002: 0.1913 6.2107 0.1142 0.0196 2.0603 4.1504 0.0000 0.0083 0.0490 0.0569 0.0000 0.0000
        Q-s-low E-s-low   Q-p-low E-p-low   Q-d-low E-d-low   Q-f-low E-f-low
:EPL002:  0.0307 -1.1249    6.0067 -4.0868    0.0155 -1.0413    0.0030 -1.0615
        Q-s-hi  E-s-hi    Q-p-hi  E-p-hi    Q-d-hi  E-d-hi    Q-f-hi  E-f-hi 
:EPH002:  0.1605 -0.1065    0.2040 -0.0060    0.0987  0.0450    0.0166  0.0616
:VZZ002: EFG INSIDE SPHERE   2 =     0.985954      UP TO R =   1.80000




:POS003: ATOM   -3 X,Y,Z = 0.10979 0.10979 0.10979  MULT= 2  ZZ=  8.000  O 1       

       LMMAX 12
       LM=   0 0  1 0  2 0  3 0  3 3  4 0  4 3  5 0  5 3  6 0  6 3  6 6

:CHA003: TOTAL VALENCE CHARGE INSIDE SPHERE   3 =   4.9179    (RMT=  1.4000 )
:PCS003: PARTIAL CHARGES SPHERE =  3 S,P,D,F,PZ,PXY, D-Z2,D-XY,X2Y2,D-XZ,YZ 
:QTL003: 1.4204 3.4901 0.0065 0.0007 1.1375 2.3526 0.0000 0.0015 0.0010 0.0041 0.0000 0.0000
        Q-s-low E-s-low   Q-p-low E-p-low   Q-d-low E-d-low   Q-f-low E-f-low
:EPL003:  1.3776 -1.0665    0.0063 -1.2637    0.0002 -2.6498    0.0001 -2.4912
        Q-s-hi  E-s-hi    Q-p-hi  E-p-hi    Q-d-hi  E-d-hi    Q-f-hi  E-f-hi 
:EPH003:  0.0428 -0.0468    3.4838  0.0226    0.0063  0.1961    0.0006  0.2431
:VZZ003: EFG INSIDE SPHERE   3 =     2.692118      UP TO R =   1.40000

:CHA  : TOTAL VALENCE CHARGE INSIDE UNIT CELL =      38.000000

:SUM  : SUM OF EIGENVALUES =         -53.210216495


        1.ATOM      Cu1                   5 CORE STATES
:1S 001: 1S                -649.687573313 Ry
:2S 001: 2S                 -77.411911732 Ry
:2PP001: 2P*                -67.725886021 Ry
:2P 001: 2P                 -66.219981719 Ry
:3S 001: 3S                  -7.760035913 Ry

        2.ATOM      Al1                   2 CORE STATES
:1S 002: 1S                -110.034360843 Ry
:2S 002: 2S                  -6.936354205 Ry

        3.ATOM      O 1                   1 CORE STATES
       CORE-FORCE in mRy/a.u. = |F|      Fx             Fy             Fz
:FCO003:   3.ATOM    152.808053808      0.000000000      0.000000000    152.808053808

:1S 003: 1S                 -36.939524008 Ry
:CINT001 Core Integral Atom   1   11.998548
:CINT002 Core Integral Atom   2    3.995903
:CINT003 Core Integral Atom   3    1.999999

       DENSITY AT NUCLEUS
        JATOM        VALENCE       SEMI-CORE          CORE           TOTAL
:RTO001:   1        6.139566        0.000000    22630.579851    22636.719417
:RTO002:   2        2.399241        0.000000     1486.759471     1489.158712
:RTO003:   3       15.517792        0.000000      303.954389      319.472181
     
       CHARGES OF NEW CHARGE DENSITY
:NTO   : INTERSTITIAL CHARGE =     6.193447
:NTO001: CHARGE SPHERE  1    =    27.429163
:NTO002: CHARGE SPHERE  2    =    10.536055
:NTO003: CHARGE SPHERE  3    =     6.917878

:NEC01: NUCLEAR AND ELECTRONIC CHARGE     58.00000    57.99442
     
       CHARGES OF OLD CHARGE DENSITY
:OTO   : INTERSTITIAL CHARGE =     7.135757
:OTO001: CHARGE SPHERE  1    =    27.288595
:OTO002: CHARGE SPHERE  2    =    10.832360
:OTO003: CHARGE SPHERE  3    =     6.371644

:NEC02: NUCLEAR AND ELECTRONIC CHARGE     58.00000    58.00000
     
       CONVERGENCE TEST
:DTO001: DIFFERENCE IN SPHERE  1 =  0.4993068
:DTO002: DIFFERENCE IN SPHERE  2 =  0.2740250
:DTO003: DIFFERENCE IN SPHERE  3 =  0.6909638

:DIS  :  CHARGE DISTANCE       ( 0.6909638 for atom    3 spin 1)      0.5388149
:BIG check (qbig,qrms,qtot)    0.230D+00   0.400D+00   0.539D+00
 
******************************************************
* MULTISECANT MIXING VER6 RELEASE 6.0 OPTIONS        *
* Standard Mode with controls                        *
* Regularization       1.000E-06                     *
* Trust Region Control Active                        *
* Max Number of Memory Steps    8                    *
******************************************************
 
:PLANE:  INTERSTITIAL TOTAL      1.67831 DISTAN  2.279E+01 % 
:CHARG:  CLM CHARGE   /ATOM     54.21347 DISTAN  1.552E+00 % 
:REDuction and DMIX in Broyd:    0.8334    0.1667
 
 Step History DMIX, Red, Pred, Trust, FRMS, FABS
  2  3.5000E-02  1.0000E+00  1.0000E+00  1.0000E+00
  
:DIRM :  MEMORY  1/ 8 RESCALES   6.78
:MIX  :   PRATT  REGULARIZATION: 1.00E-06  GREED: 0.088  Expand 2.50  0.09                
     
       CHARGES OF MIXED CHARGE DENSITY
:CTO   : INTERSTITIAL CHARGE =     7.044227
:CTO001: CHARGE SPHERE  1    =    27.302620
:CTO002: CHARGE SPHERE  2    =    10.804532
:CTO003: CHARGE SPHERE  3    =     6.424310

:NEC03: NUCLEAR AND ELECTRONIC CHARGE     58.00000    58.00000

PW CHANGE     H    K    L       Current     Change     Residue
:PTO001:      0    0    0  6.67061527E-02 -8.470E-04 -9.049E-03
:PTO002:     -1   -1   -1 -1.86489891E-02 -6.448E-04 -6.912E-03
:PTO003:     -2   -2   -2 -3.23810362E-03 -8.400E-04 -9.071E-03
:PTO004:     -1    0    0  1.09037079E-01 -1.790E-04 -2.380E-03
:PTO005:     -1   -1    0  6.31389283E-02 -1.801E-03 -1.987E-02
:PTO006:     -2   -1   -1 -5.47676078E-02 -2.503E-03 -2.717E-02
:PTO007:     -2   -2   -1 -6.55384682E-02 -1.459E-03 -1.566E-02
:PTO008:     -3   -3   -3  2.94132226E-02 -4.208E-05 -5.631E-04
:PTO009:     -3   -2   -2  1.74616990E-02 -4.063E-04 -4.532E-03
:PTO010:     -3   -3   -2  5.14281855E-02 -7.367E-04 -8.473E-03
:PTO011:     -1    0    1  4.46130430E-02 -1.065E-03 -1.220E-02
:PTO012:     -4   -4   -4 -2.60441921E-03 -3.237E-04 -3.553E-03

:ENE  : ********** TOTAL ENERGY IN Ry =        -4097.15851960

       TOTAL FORCE IN mRy/a.u. = |F|     Fx             Fy             Fz     with/without FOR in case.in2
:FOR001:   1.ATOM          0.000          0.000          0.000          0.000 partial forces
:FOR002:   2.ATOM          0.000          0.000          0.000          0.000 partial forces
:FOR003:   3.ATOM        445.910          0.000          0.000       -445.910 partial forces
       TOTAL FORCE WITH RESPECT TO GLOBAL CARTESIAN COORDINATES:
:FCA001:   1.ATOM                         0.000          0.000          0.000 partial forces
:FCA002:   2.ATOM                         0.000          0.000          0.000 partial forces
:FCA003:   3.ATOM                         0.000          0.000       -445.910 partial forces
       TOTAL FORCE WITH RESPECT TO THE GLOBAL COORDINATE SYSTEM:
:FGL001:   1.ATOM                 0.000000000     0.000000000     0.000000000 partial forces
:FGL002:   2.ATOM                 0.000000000     0.000000000     0.000000000 partial forces
:FGL003:   3.ATOM              -445.909726180  -445.909726180  -445.909726180 partial forces


            ---------
:ITE003:  3. ITERATION
            ---------

:NATO :    3 INDEPENDENT AND    4 TOTAL ATOMS IN UNITCELL
       SUBSTANCE: CuAlO2 BenkoF84                                             

       LATTICE                      = R   
:POT  : POTENTIAL OPTION EX_PBE EC_PBE VX_PBE VC_PBE
:LAT  : LATTICE CONSTANTS=  5.40508  5.40508 32.03482
:VOL  : UNIT CELL VOLUME =     270.16967
       MODE OF CALCULATION IS       = RELA
       NON-SPINPOLARIZED CALCULATION
:IFFT  : FFT-parameters:   90   90   90 Factor: 2.00
       ATOMNUMBER=  1 Cu1        VCOUL-ZERO =  0.38897E+00
:EFG001:                        EFG         =    -0.50135   *10**21  V / m**2
                               V20  TOT/SRF=    -0.43418     0.27075
                               V22  TOT/SRF=     0.00000     0.00000
                               V22M TOT/SRF=     0.00000     0.00000
                               V21  TOT/SRF=     0.00000     0.00000
                               V21M TOT/SRF=     0.00000     0.00000

              0.25068    0.00000    0.00000        0.25068    0.00000    0.00000
              0.00000    0.25068    0.00000        0.00000    0.25068    0.00000
              0.00000    0.00000   -0.50135        0.00000    0.00000   -0.50135

         MAIN DIRECTIONS OF THE EFG   1.0000  0.0000  0.0000
                                      0.0000  1.0000  0.0000
                                      0.0000  0.0000  1.0000
:ANG001:  ANGLE WITH OLD X-AXIS =         0.0

:ETA001:                         ASYMM. ETA =     0.00000


       ATOMNUMBER=  2 Al1        VCOUL-ZERO = -0.84838E-01
:EFG002:                        EFG         =    -0.00010   *10**21  V / m**2
                               V20  TOT/SRF=    -0.00009    -0.15784
                               V22  TOT/SRF=     0.00000     0.00000
                               V22M TOT/SRF=     0.00000     0.00000
                               V21  TOT/SRF=     0.00000     0.00000
                               V21M TOT/SRF=     0.00000     0.00000

              0.00005    0.00000    0.00000        0.00005    0.00000    0.00000
              0.00000    0.00005    0.00000        0.00000    0.00005    0.00000
              0.00000    0.00000   -0.00010        0.00000    0.00000   -0.00010

         MAIN DIRECTIONS OF THE EFG   1.0000  0.0000  0.0000
                                      0.0000  1.0000  0.0000
                                      0.0000  0.0000  1.0000
:ANG002:  ANGLE WITH OLD X-AXIS =         0.0

:ETA002:                         ASYMM. ETA =     0.00000


       ATOMNUMBER=  3 O 1        VCOUL-ZERO =  0.58261E-01
:EFG003:                        EFG         =     0.56849   *10**21  V / m**2
                               V20  TOT/SRF=     0.49233     0.26879
                               V22  TOT/SRF=     0.00000     0.00000
                               V22M TOT/SRF=     0.00000     0.00000
                               V21  TOT/SRF=     0.00000     0.00000
                               V21M TOT/SRF=     0.00000     0.00000

             -0.28425    0.00000    0.00000       -0.28425    0.00000    0.00000
              0.00000   -0.28425    0.00000        0.00000   -0.28425    0.00000
              0.00000    0.00000    0.56849        0.00000    0.00000    0.56849

         MAIN DIRECTIONS OF THE EFG   1.0000  0.0000  0.0000
                                      0.0000  1.0000  0.0000
                                      0.0000  0.0000  1.0000
:ANG003:  ANGLE WITH OLD X-AXIS =         0.0

:ETA003:                         ASYMM. ETA =     0.00000


     HELLMANN-FEYNMAN-FORCE IN mRy/a.u. = |F|  Fx       Fy             Fz
:FHF001:   1.ATOM      0.000000000      0.000000000      0.000000000      0.000000000

     HELLMANN-FEYNMAN-FORCE IN mRy/a.u. = |F|  Fx       Fy             Fz
:FHF002:   2.ATOM      0.000000000      0.000000000      0.000000000      0.000000000

     HELLMANN-FEYNMAN-FORCE IN mRy/a.u. = |F|  Fx       Fy             Fz
:FHF003:   3.ATOM    512.758157697      0.000000000      0.000000000   -512.758157697

:FIT001: LUSE= 13 SIGMA OF V-XC FIT FOR ATOM  1  0.7591132E-02
:FIT001: LUSE= 13 SIGMA OF V-XC FIT FOR ATOM  1  0.7591132E-02
:FIT002: LUSE= 13 SIGMA OF V-XC FIT FOR ATOM  2  0.4780426E-02
:FIT002: LUSE= 13 SIGMA OF V-XC FIT FOR ATOM  2  0.4780426E-02
:FIT003: LUSE= 13 SIGMA OF V-XC FIT FOR ATOM  3  0.6118173E-04
:FIT003: LUSE= 13 SIGMA OF V-XC FIT FOR ATOM  3  0.6118173E-04
:DEN  : DENSITY INTEGRAL  =         -1793.74322218   (Ry)
       ELS_POTENTIAL_AT Z=0 and Z=0.5:   0.00000   0.00000
       ELS_POTENTIAL_AT Y=0 and Y=0.5:   0.00000   0.00000
:VZERO:v0,v0c,v0x  -0.82245   0.00000  -0.82245 v5,v5c,v5x  -0.82245   0.00000  -0.82245
:VZERY:v0,v0c,v0x  -0.82245   0.00000  -0.82245 v5,v5c,v5x  -0.82245   0.00000  -0.82245
:VZERX:v0,v0c,v0x  -2.40682  -1.19171  -1.21511 v5,v5c,v5x  -0.04231   0.39209  -0.43440

          ATOMIC SPHERE DEPENDENT PARAMETERS FOR ATOM  Cu1       
:e__0001: OVERALL ENERGY PARAMETER IS    0.2462
          OVERALL BASIS SET ON ATOM IS LAPW
:E1_0001: E( 1)=    0.2462
             APW+lo
:E1_0001: E( 1)=   -4.6148   E(BOTTOM)=   -4.681   E(TOP)=   -4.548  1  2   177
             LOCAL ORBITAL
:E2_0001: E( 2)=    0.3142   E(BOTTOM)=   -0.012   E(TOP)=    0.640  0  1   133
             APW+lo
:E0_0001: E( 0)=    0.2462
             APW+lo

          ATOMIC SPHERE DEPENDENT PARAMETERS FOR ATOM  Al1       
:e__0002: OVERALL ENERGY PARAMETER IS    0.2462
          OVERALL BASIS SET ON ATOM IS LAPW
:E1_0002: E( 1)=    0.2462
             APW+lo
:E1_0002: E( 1)=   -4.1478   E(BOTTOM)=   -4.253   E(TOP)=   -4.043  0  1   167
             LOCAL ORBITAL
:E0_0002: E( 0)=    0.2462
             APW+lo

          ATOMIC SPHERE DEPENDENT PARAMETERS FOR ATOM  O 1       
:e__0003: OVERALL ENERGY PARAMETER IS    0.2462
          OVERALL BASIS SET ON ATOM IS LAPW
:E0_0003: E( 0)=   -1.5500   E(BOTTOM)=   -2.726   E(TOP)= -200.000  1 -1   236
             APW+lo
:E0_0003: E( 0)=    0.6462
             LOCAL ORBITAL
:E1_0003: E( 1)=    0.2462
             APW+lo

       K=   0.00000   0.00000   0.00000            1
:RKM  : MATRIX SIZE   404LOs:  29  RKM= 5.99  WEIGHT= 1.00  PGR:    
       EIGENVALUES ARE:
:EIG00001:      -4.6054240   -4.5974425   -4.5974425   -4.1224185   -4.1224185
:EIG00006:      -4.1192256   -1.1447523   -1.0007788   -0.1706720    0.1201058
:EIG00011:       0.1201058    0.1249931    0.1940072    0.1940072    0.2260755
:EIG00016:       0.3502919    0.3502919    0.3919947    0.3919947    0.6012995
:EIG00021:       0.9180913    0.9782864    1.3510720    1.4981807    1.4981807
:EIG00026:       1.5776083    1.5986646    1.5986646    1.8981082
       ********************************************************

:KPT   :      NUMBER OF K-POINTS:    13
       Insulator, EF-inconsistency corrected
:GAP  :    0.1341 Ry =     1.824 eV   (provided you have a proper k-mesh)
         Bandranges (emin - emax) and occupancy:
:BAN00009:   9   -0.170672   -0.086264  2.00000000
:BAN00010:  10   -0.126944    0.120106  2.00000000
:BAN00011:  11   -0.050402    0.134350  2.00000000
:BAN00012:  12    0.058672    0.134350  2.00000000
:BAN00013:  13    0.082432    0.194007  2.00000000
:BAN00014:  14    0.103189    0.194007  2.00000000
:BAN00015:  15    0.226075    0.335838  2.00000000
:BAN00016:  16    0.348072    0.360084  2.00000000
:BAN00017:  17    0.350292    0.393790  2.00000000
:BAN00018:  18    0.374866    0.402534  2.00000000
:BAN00019:  19    0.386850    0.467150  2.00000000
:BAN00020:  20    0.601300    0.760155  0.00000000
:BAN00021:  21    0.788424    1.093357  0.00000000
:BAN00022:  22    0.978286    1.147003  0.00000000
:BAN00023:  23    1.115492    1.355102  0.00000000
:BAN00024:  24    1.243057    1.501274  0.00000000
        Energy to separate low and high energystates:   -0.22067


:NOE  : NUMBER OF ELECTRONS          =  38.000

:FER  : F E R M I - ENERGY(TETRAH.M.)=   0.4671502555
:GMA  : POTENTIAL AND CHARGE CUT-OFF  12.00 Ry**.5




:POS001: ATOM   -1 X,Y,Z = 0.00000 0.00000 0.00000  MULT= 1  ZZ= 29.000  Cu1       

       LMMAX  7
       LM=   0 0  2 0  4 0  4 3  6 0  6 3  6 6

:CHA001: TOTAL VALENCE CHARGE INSIDE SPHERE   1 =  15.3954    (RMT=  2.0000 )
:PCS001: PARTIAL CHARGES SPHERE =  1 S,P,D,F,PZ,PXY, D-Z2,D-XY,X2Y2,D-XZ,YZ 
:QTL001: 0.2359 6.1310 9.0048 0.0176 2.0981 4.0329 0.0000 1.6177 3.6519 3.7353 0.0000 0.0000
        Q-s-low E-s-low   Q-p-low E-p-low   Q-d-low E-d-low   Q-f-low E-f-low
:EPL001:  0.0144 -1.0266    5.9999 -4.5907    0.0177 -1.0248    0.0027 -1.0249
        Q-s-hi  E-s-hi    Q-p-hi  E-p-hi    Q-d-hi  E-d-hi    Q-f-hi  E-f-hi 
:EPH001:  0.2215  0.1649    0.1312  0.1014    8.9871  0.3522    0.0149  0.0786
:VZZ001: EFG INSIDE SPHERE   1 =    -4.578418      UP TO R =   2.00000




:POS002: ATOM   -2 X,Y,Z = 0.50000 0.50000 0.50000  MULT= 1  ZZ= 13.000  Al1       

       LMMAX  7
       LM=   0 0  2 0  4 0  4 3  6 0  6 3  6 6

:CHA002: TOTAL VALENCE CHARGE INSIDE SPHERE   2 =   6.5671    (RMT=  1.8000 )
:PCS002: PARTIAL CHARGES SPHERE =  2 S,P,D,F,PZ,PXY, D-Z2,D-XY,X2Y2,D-XZ,YZ 
:QTL002: 0.2009 6.2232 0.1188 0.0199 2.0646 4.1586 0.0000 0.0087 0.0508 0.0593 0.0000 0.0000
        Q-s-low E-s-low   Q-p-low E-p-low   Q-d-low E-d-low   Q-f-low E-f-low
:EPL002:  0.0323 -1.0864    6.0086 -4.1018    0.0159 -0.9998    0.0030 -1.0205
        Q-s-hi  E-s-hi    Q-p-hi  E-p-hi    Q-d-hi  E-d-hi    Q-f-hi  E-f-hi 
:EPH002:  0.1686 -0.0750    0.2146  0.0299    0.1029  0.0825    0.0169  0.0990
:VZZ002: EFG INSIDE SPHERE   2 =     1.041356      UP TO R =   1.80000




:POS003: ATOM   -3 X,Y,Z = 0.10979 0.10979 0.10979  MULT= 2  ZZ=  8.000  O 1       

       LMMAX 12
       LM=   0 0  1 0  2 0  3 0  3 3  4 0  4 3  5 0  5 3  6 0  6 3  6 6

:CHA003: TOTAL VALENCE CHARGE INSIDE SPHERE   3 =   4.8301    (RMT=  1.4000 )
:PCS003: PARTIAL CHARGES SPHERE =  3 S,P,D,F,PZ,PXY, D-Z2,D-XY,X2Y2,D-XZ,YZ 
:QTL003: 1.4095 3.4130 0.0067 0.0007 1.1097 2.3033 0.0000 0.0014 0.0010 0.0042 0.0000 0.0000
        Q-s-low E-s-low   Q-p-low E-p-low   Q-d-low E-d-low   Q-f-low E-f-low
:EPL003:  1.3641 -1.0260    0.0060 -1.2304    0.0003 -2.5912    0.0001 -2.4383
        Q-s-hi  E-s-hi    Q-p-hi  E-p-hi    Q-d-hi  E-d-hi    Q-f-hi  E-f-hi 
:EPH003:  0.0454 -0.0167    3.4069  0.0596    0.0065  0.2199    0.0006  0.2645
:VZZ003: EFG INSIDE SPHERE   3 =     2.853005      UP TO R =   1.40000

:CHA  : TOTAL VALENCE CHARGE INSIDE UNIT CELL =      38.000000

:SUM  : SUM OF EIGENVALUES =         -52.407331082


        1.ATOM      Cu1                   5 CORE STATES
:1S 001: 1S                -649.641935312 Ry
:2S 001: 2S                 -77.365858045 Ry
:2PP001: 2P*                -67.679435449 Ry
:2P 001: 2P                 -66.173574193 Ry
:3S 001: 3S                  -7.734167941 Ry

        2.ATOM      Al1                   2 CORE STATES
:1S 002: 1S                -110.058196469 Ry
:2S 002: 2S                  -6.952254767 Ry

        3.ATOM      O 1                   1 CORE STATES
       CORE-FORCE in mRy/a.u. = |F|      Fx             Fy             Fz
:FCO003:   3.ATOM    134.258136394      0.000000000      0.000000000    134.258136394

:1S 003: 1S                 -36.845829581 Ry
:CINT001 Core Integral Atom   1   11.998525
:CINT002 Core Integral Atom   2    3.995936
:CINT003 Core Integral Atom   3    1.999999

       DENSITY AT NUCLEUS
        JATOM        VALENCE       SEMI-CORE          CORE           TOTAL
:RTO001:   1        6.676532        0.000000    22630.059247    22636.735779
:RTO002:   2        2.526677        0.000000     1486.841611     1489.368288
:RTO003:   3       15.297798        0.000000      303.918214      319.216012
     
       CHARGES OF NEW CHARGE DENSITY
:NTO   : INTERSTITIAL CHARGE =     6.377330
:NTO001: CHARGE SPHERE  1    =    27.393881
:NTO002: CHARGE SPHERE  2    =    10.563064
:NTO003: CHARGE SPHERE  3    =     6.830078

:NEC01: NUCLEAR AND ELECTRONIC CHARGE     58.00000    57.99443
     
       CHARGES OF OLD CHARGE DENSITY
:OTO   : INTERSTITIAL CHARGE =     7.044227
:OTO001: CHARGE SPHERE  1    =    27.302620
:OTO002: CHARGE SPHERE  2    =    10.804532
:OTO003: CHARGE SPHERE  3    =     6.424310

:NEC02: NUCLEAR AND ELECTRONIC CHARGE     58.00000    58.00000
     
       CONVERGENCE TEST
:DTO001: DIFFERENCE IN SPHERE  1 =  0.2937747
:DTO002: DIFFERENCE IN SPHERE  2 =  0.2236282
:DTO003: DIFFERENCE IN SPHERE  3 =  0.4953741

:DIS  :  CHARGE DISTANCE       ( 0.4953741 for atom    3 spin 1)      0.3770378
:BIG check (qbig,qrms,qtot)    0.165D+00   0.280D+00   0.377D+00
 
******************************************************
* MULTISECANT MIXING VER6 RELEASE 6.0 OPTIONS        *
* Standard Mode with controls                        *
* Regularization       1.000E-06                     *
* Trust Region Control Active                        *
* Max Number of Memory Steps    8                    *
******************************************************
 
:PLANE:  INTERSTITIAL TOTAL      1.66897 DISTAN  2.038E+01 % 
:CHARG:  CLM CHARGE   /ATOM     54.22891 DISTAN  1.171E+00 % 
:REDuction and DMIX in Broyd:    0.9359    0.1872
 
 Step History DMIX, Red, Pred, Trust, FRMS, FABS
  2  3.5000E-02  1.0000E+00  1.0000E+00  1.0000E+00
  3  8.7500E-02  1.0000E+00  1.0000E+00  1.0000E+00
  
:NORMS:  Nuclear, Spectral, Froebius, Shanno-Pua   0.2417E+01  0.2413E+01  0.2413E+01  0.3523E+00
:INFO :  Number of Memory Steps    2 Skipping    0
:INFO :  SLambda=    2.4171903  Max    2.4171903

Eigenvalues, unscaled except for SY+YY
   #     SY Real        SY Imag          SS             YY         SY+YY Real      SY+YY Imag
   1   7.046517E-01   0.000000E+00   3.434301E-01   1.999995E+00   3.703272E+00   0.000000E+00
   2  -3.885781E-16   0.000000E+00  -2.775558E-17   5.439018E-06   5.628659E-06   0.000000E+00
 
:INFO :  Singular value   3.703E+00 Weight  1.0000E+00 Projections  -2.033E+02  1.879E+00
:INFO :  Singular value   5.629E-06 Weight  8.8790E-01 Projections   2.007E+02  2.856E+02
 
:DIRM :  MEMORY 2/8 RESCALE   6.36 RED 0.823 PRED 1.000 NEXT 0.720
:INFO :  Blimit    1.522E+00  1.002E+00  6.407E-01  2.567E+00
:DIRP :  |MSR1|= 1.017E+00 |PRATT|= 2.165E+00 ANGLE=   2.7 DEGREES
:DIRQ :  |MSR1|= 9.677E-01 |PRATT|= 1.906E+00 ANGLE=   5.9 DEGREES
:DIR  :  |MSR1|= 1.404E+00 |PRATT|= 2.884E+00 ANGLE=   5.0 DEGREES
:MIX  :   MSE1   REGULARIZATION: 2.00E-06  GREED: 0.096  Newton 1.00  0.49                
     
       CHARGES OF MIXED CHARGE DENSITY
:CTO   : INTERSTITIAL CHARGE =     6.701898
:CTO001: CHARGE SPHERE  1    =    27.349166
:CTO002: CHARGE SPHERE  2    =    10.686290
:CTO003: CHARGE SPHERE  3    =     6.631323

:NEC03: NUCLEAR AND ELECTRONIC CHARGE     58.00000    58.00000

PW CHANGE     H    K    L       Current     Change     Residue
:PTO001:      0    0    0  6.31505471E-02 -3.556E-03 -7.466E-03
:PTO002:     -1   -1   -1 -2.15638428E-02 -2.915E-03 -5.738E-03
:PTO003:     -2   -2   -2 -6.95982956E-03 -3.722E-03 -7.736E-03
:PTO004:     -1    0    0  1.08086187E-01 -9.509E-04 -3.279E-03
:PTO005:     -1   -1    0  5.47894149E-02 -8.350E-03 -1.810E-02
:PTO006:     -2   -1   -1 -6.61228039E-02 -1.136E-02 -2.352E-02
:PTO007:     -2   -2   -1 -7.19669506E-02 -6.428E-03 -1.308E-02
:PTO008:     -3   -3   -3  2.91801410E-02 -2.331E-04 -7.824E-04
:PTO009:     -3   -2   -2  1.55866439E-02 -1.875E-03 -4.262E-03
:PTO010:     -3   -3   -2  4.77311254E-02 -3.697E-03 -8.633E-03
:PTO011:     -1    0    1  3.91803282E-02 -5.433E-03 -1.229E-02
:PTO012:     -4   -4   -4 -4.05000857E-03 -1.446E-03 -3.191E-03

:ENE  : ********** TOTAL ENERGY IN Ry =        -4097.09186432

       TOTAL FORCE IN mRy/a.u. = |F|     Fx             Fy             Fz     with/without FOR in case.in2
:FOR001:   1.ATOM          0.000          0.000          0.000          0.000 partial forces
:FOR002:   2.ATOM          0.000          0.000          0.000          0.000 partial forces
:FOR003:   3.ATOM        378.500          0.000          0.000       -378.500 partial forces
       TOTAL FORCE WITH RESPECT TO GLOBAL CARTESIAN COORDINATES:
:FCA001:   1.ATOM                         0.000          0.000          0.000 partial forces
:FCA002:   2.ATOM                         0.000          0.000          0.000 partial forces
:FCA003:   3.ATOM                         0.000          0.000       -378.500 partial forces
       TOTAL FORCE WITH RESPECT TO THE GLOBAL COORDINATE SYSTEM:
:FGL001:   1.ATOM                 0.000000000     0.000000000     0.000000000 partial forces
:FGL002:   2.ATOM                 0.000000000     0.000000000     0.000000000 partial forces
:FGL003:   3.ATOM              -378.500021303  -378.500021303  -378.500021303 partial forces


            ---------
:ITE004:  4. ITERATION
            ---------

:NATO :    3 INDEPENDENT AND    4 TOTAL ATOMS IN UNITCELL
       SUBSTANCE: CuAlO2 BenkoF84                                             

       LATTICE                      = R   
:POT  : POTENTIAL OPTION EX_PBE EC_PBE VX_PBE VC_PBE
:LAT  : LATTICE CONSTANTS=  5.40508  5.40508 32.03482
:VOL  : UNIT CELL VOLUME =     270.16967
       MODE OF CALCULATION IS       = RELA
       NON-SPINPOLARIZED CALCULATION
:IFFT  : FFT-parameters:   90   90   90 Factor: 2.00
       ATOMNUMBER=  1 Cu1        VCOUL-ZERO =  0.33065E+00
:EFG001:                        EFG         =    -2.37414   *10**21  V / m**2
                               V20  TOT/SRF=    -2.05607     0.09292
                               V22  TOT/SRF=     0.00000     0.00000
                               V22M TOT/SRF=     0.00000     0.00000
                               V21  TOT/SRF=     0.00000     0.00000
                               V21M TOT/SRF=     0.00000     0.00000

              1.18707    0.00000    0.00000        1.18707    0.00000    0.00000
              0.00000    1.18707    0.00000        0.00000    1.18707    0.00000
              0.00000    0.00000   -2.37414        0.00000    0.00000   -2.37414

         MAIN DIRECTIONS OF THE EFG   1.0000  0.0000  0.0000
                                      0.0000  1.0000  0.0000
                                      0.0000  0.0000  1.0000
:ANG001:  ANGLE WITH OLD X-AXIS =         0.0

:ETA001:                         ASYMM. ETA =     0.00000


       ATOMNUMBER=  2 Al1        VCOUL-ZERO = -0.84296E-01
:EFG002:                        EFG         =     0.55693   *10**21  V / m**2
                               V20  TOT/SRF=     0.48232    -0.03078
                               V22  TOT/SRF=     0.00000     0.00000
                               V22M TOT/SRF=     0.00000     0.00000
                               V21  TOT/SRF=     0.00000     0.00000
                               V21M TOT/SRF=     0.00000     0.00000

             -0.27847    0.00000    0.00000       -0.27847    0.00000    0.00000
              0.00000   -0.27847    0.00000        0.00000   -0.27847    0.00000
              0.00000    0.00000    0.55693        0.00000    0.00000    0.55693

         MAIN DIRECTIONS OF THE EFG   1.0000  0.0000  0.0000
                                      0.0000  1.0000  0.0000
                                      0.0000  0.0000  1.0000
:ANG002:  ANGLE WITH OLD X-AXIS =         0.0

:ETA002:                         ASYMM. ETA =     0.00000


       ATOMNUMBER=  3 O 1        VCOUL-ZERO =  0.18322E+00
:EFG003:                        EFG         =     1.66909   *10**21  V / m**2
                               V20  TOT/SRF=     1.44548     0.26344
                               V22  TOT/SRF=     0.00000     0.00000
                               V22M TOT/SRF=     0.00000     0.00000
                               V21  TOT/SRF=     0.00000     0.00000
                               V21M TOT/SRF=     0.00000     0.00000

             -0.83455    0.00000    0.00000       -0.83455    0.00000    0.00000
              0.00000   -0.83455    0.00000        0.00000   -0.83455    0.00000
              0.00000    0.00000    1.66909        0.00000    0.00000    1.66909

         MAIN DIRECTIONS OF THE EFG   1.0000  0.0000  0.0000
                                      0.0000  1.0000  0.0000
                                      0.0000  0.0000  1.0000
:ANG003:  ANGLE WITH OLD X-AXIS =         0.0

:ETA003:                         ASYMM. ETA =     0.00000


     HELLMANN-FEYNMAN-FORCE IN mRy/a.u. = |F|  Fx       Fy             Fz
:FHF001:   1.ATOM      0.000000000      0.000000000      0.000000000      0.000000000

     HELLMANN-FEYNMAN-FORCE IN mRy/a.u. = |F|  Fx       Fy             Fz
:FHF002:   2.ATOM      0.000000000      0.000000000      0.000000000      0.000000000

     HELLMANN-FEYNMAN-FORCE IN mRy/a.u. = |F|  Fx       Fy             Fz
:FHF003:   3.ATOM    111.382776191      0.000000000      0.000000000   -111.382776191

:FIT001: LUSE= 13 SIGMA OF V-XC FIT FOR ATOM  1  0.7688781E-02
:FIT001: LUSE= 13 SIGMA OF V-XC FIT FOR ATOM  1  0.7688781E-02
:FIT002: LUSE= 13 SIGMA OF V-XC FIT FOR ATOM  2  0.4574265E-02
:FIT002: LUSE= 13 SIGMA OF V-XC FIT FOR ATOM  2  0.4574265E-02
:FIT003: LUSE= 13 SIGMA OF V-XC FIT FOR ATOM  3  0.8831455E-04
:FIT003: LUSE= 13 SIGMA OF V-XC FIT FOR ATOM  3  0.8831455E-04
:DEN  : DENSITY INTEGRAL  =         -1798.71319579   (Ry)
       ELS_POTENTIAL_AT Z=0 and Z=0.5:   0.00000   0.00000
       ELS_POTENTIAL_AT Y=0 and Y=0.5:   0.00000   0.00000
:VZERO:v0,v0c,v0x  -0.79698   0.00000  -0.79698 v5,v5c,v5x  -0.79698   0.00000  -0.79698
:VZERY:v0,v0c,v0x  -0.79698   0.00000  -0.79698 v5,v5c,v5x  -0.79698   0.00000  -0.79698
:VZERX:v0,v0c,v0x  -2.21312  -1.01504  -1.19808 v5,v5c,v5x  -0.12320   0.24285  -0.36605

          ATOMIC SPHERE DEPENDENT PARAMETERS FOR ATOM  Cu1       
:e__0001: OVERALL ENERGY PARAMETER IS    0.2672
          OVERALL BASIS SET ON ATOM IS LAPW
:E1_0001: E( 1)=    0.2672
             APW+lo
:E1_0001: E( 1)=   -4.5597   E(BOTTOM)=   -4.629   E(TOP)=   -4.491  1  2   180
             LOCAL ORBITAL
:E2_0001: E( 2)=    0.3527   E(BOTTOM)=    0.011   E(TOP)=    0.694  0  1   136
             APW+lo
:E0_0001: E( 0)=    0.2672
             APW+lo

          ATOMIC SPHERE DEPENDENT PARAMETERS FOR ATOM  Al1       
:e__0002: OVERALL ENERGY PARAMETER IS    0.2672
          OVERALL BASIS SET ON ATOM IS LAPW
:E1_0002: E( 1)=    0.2672
             APW+lo
:E1_0002: E( 1)=   -4.2025   E(BOTTOM)=   -4.305   E(TOP)=   -4.100  0  1   161
             LOCAL ORBITAL
:E0_0002: E( 0)=    0.2672
             APW+lo

          ATOMIC SPHERE DEPENDENT PARAMETERS FOR ATOM  O 1       
:e__0003: OVERALL ENERGY PARAMETER IS    0.2672
          OVERALL BASIS SET ON ATOM IS LAPW
:E0_0003: E( 0)=   -1.5500   E(BOTTOM)=   -2.530   E(TOP)= -200.000  1 -1   233
             APW+lo
:E0_0003: E( 0)=    0.6672
             LOCAL ORBITAL
:E1_0003: E( 1)=    0.2672
             APW+lo

       K=   0.00000   0.00000   0.00000            1
:RKM  : MATRIX SIZE   404LOs:  29  RKM= 5.99  WEIGHT= 1.00  PGR:    
       EIGENVALUES ARE:
:EIG00001:      -4.5469564   -4.5428805   -4.5428805   -4.1776155   -4.1763809
:EIG00006:      -4.1763809   -0.9994963   -0.8397245   -0.0751153    0.2182436
:EIG00011:       0.2684781    0.2684781    0.2770970    0.3644529    0.3644529
:EIG00016:       0.3798786    0.3798786    0.4507788    0.4507788    0.6675072
:EIG00021:       0.9649324    1.0553289    1.3672125    1.5305799    1.5305799
:EIG00026:       1.6365968    1.6365968    1.6462901    1.8689646    1.9457743
:EIG00031:       1.9457743
       ********************************************************

:KPT   :      NUMBER OF K-POINTS:    13
       Insulator, EF-inconsistency corrected
:GAP  :    0.1439 Ry =     1.957 eV   (provided you have a proper k-mesh)
         Bandranges (emin - emax) and occupancy:
:BAN00009:   9   -0.075115    0.033988  2.00000000
:BAN00010:  10   -0.015625    0.218244  2.00000000
:BAN00011:  11    0.066316    0.268478  2.00000000
:BAN00012:  12    0.187639    0.298455  2.00000000
:BAN00013:  13    0.213219    0.302744  2.00000000
:BAN00014:  14    0.239518    0.364453  2.00000000
:BAN00015:  15    0.312386    0.367618  2.00000000
:BAN00016:  16    0.379170    0.411435  2.00000000
:BAN00017:  17    0.379879    0.439603  2.00000000
:BAN00018:  18    0.418648    0.473795  2.00000000
:BAN00019:  19    0.441559    0.523625  2.00000000
:BAN00020:  20    0.667507    0.799664  0.00000000
:BAN00021:  21    0.847305    1.083926  0.00000000
:BAN00022:  22    1.042832    1.239695  0.00000000
:BAN00023:  23    1.141173    1.423842  0.00000000
:BAN00024:  24    1.282379    1.535047  0.00000000
        Energy to separate low and high energystates:   -0.12512


:NOE  : NUMBER OF ELECTRONS          =  38.000

:FER  : F E R M I - ENERGY(TETRAH.M.)=   0.5236245128
:GMA  : POTENTIAL AND CHARGE CUT-OFF  12.00 Ry**.5




:POS001: ATOM   -1 X,Y,Z = 0.00000 0.00000 0.00000  MULT= 1  ZZ= 29.000  Cu1       

       LMMAX  7
       LM=   0 0  2 0  4 0  4 3  6 0  6 3  6 6

:CHA001: TOTAL VALENCE CHARGE INSIDE SPHERE   1 =  15.3446    (RMT=  2.0000 )
:PCS001: PARTIAL CHARGES SPHERE =  1 S,P,D,F,PZ,PXY, D-Z2,D-XY,X2Y2,D-XZ,YZ 
:QTL001: 0.3046 6.1719 8.8444 0.0181 2.1173 4.0546 0.0000 1.5328 3.6012 3.7105 0.0000 0.0000
        Q-s-low E-s-low   Q-p-low E-p-low   Q-d-low E-d-low   Q-f-low E-f-low
:EPL001:  0.0190 -0.8644    6.0022 -4.5326    0.0214 -0.8615    0.0028 -0.8557
        Q-s-hi  E-s-hi    Q-p-hi  E-p-hi    Q-d-hi  E-d-hi    Q-f-hi  E-f-hi 
:EPH001:  0.2856  0.2331    0.1696  0.2205    8.8230  0.3864    0.0153  0.2249
:VZZ001: EFG INSIDE SPHERE   1 =    -5.691137      UP TO R =   2.00000




:POS002: ATOM   -2 X,Y,Z = 0.50000 0.50000 0.50000  MULT= 1  ZZ= 13.000  Al1       

       LMMAX  7
       LM=   0 0  2 0  4 0  4 3  6 0  6 3  6 6

:CHA002: TOTAL VALENCE CHARGE INSIDE SPHERE   2 =   6.6769    (RMT=  1.8000 )
:PCS002: PARTIAL CHARGES SPHERE =  2 S,P,D,F,PZ,PXY, D-Z2,D-XY,X2Y2,D-XZ,YZ 
:QTL002: 0.2397 6.2750 0.1373 0.0207 2.0832 4.1918 0.0000 0.0103 0.0576 0.0694 0.0000 0.0000
        Q-s-low E-s-low   Q-p-low E-p-low   Q-d-low E-d-low   Q-f-low E-f-low
:EPL002:  0.0393 -0.9313    6.0160 -4.1526    0.0173 -0.8330    0.0029 -0.8559
        Q-s-hi  E-s-hi    Q-p-hi  E-p-hi    Q-d-hi  E-d-hi    Q-f-hi  E-f-hi 
:EPH002:  0.2005  0.0473    0.2591  0.1710    0.1200  0.2300    0.0177  0.2447
:VZZ002: EFG INSIDE SPHERE   2 =     1.185120      UP TO R =   1.80000




:POS003: ATOM   -3 X,Y,Z = 0.10979 0.10979 0.10979  MULT= 2  ZZ=  8.000  O 1       

       LMMAX 12
       LM=   0 0  1 0  2 0  3 0  3 3  4 0  4 3  5 0  5 3  6 0  6 3  6 6

:CHA003: TOTAL VALENCE CHARGE INSIDE SPHERE   3 =   4.4563    (RMT=  1.4000 )
:PCS003: PARTIAL CHARGES SPHERE =  3 S,P,D,F,PZ,PXY, D-Z2,D-XY,X2Y2,D-XZ,YZ 
:QTL003: 1.3642 3.0840 0.0072 0.0008 0.9872 2.0968 0.0000 0.0015 0.0013 0.0044 0.0000 0.0000
        Q-s-low E-s-low   Q-p-low E-p-low   Q-d-low E-d-low   Q-f-low E-f-low
:EPL003:  1.3066 -0.8631    0.0050 -1.1031    0.0003 -2.3383    0.0001 -2.2168
        Q-s-hi  E-s-hi    Q-p-hi  E-p-hi    Q-d-hi  E-d-hi    Q-f-hi  E-f-hi 
:EPH003:  0.0575  0.1044    3.0790  0.2045    0.0070  0.2965    0.0007  0.3275
:VZZ003: EFG INSIDE SPHERE   3 =     3.824314      UP TO R =   1.40000

:CHA  : TOTAL VALENCE CHARGE INSIDE UNIT CELL =      38.000000

:SUM  : SUM OF EIGENVALUES =         -49.788664447


        1.ATOM      Cu1                   5 CORE STATES
:1S 001: 1S                -649.544221829 Ry
:2S 001: 2S                 -77.257893880 Ry
:2PP001: 2P*                -67.571607703 Ry
:2P 001: 2P                 -66.065728412 Ry
:3S 001: 3S                  -7.673701598 Ry

        2.ATOM      Al1                   2 CORE STATES
:1S 002: 1S                -110.137791030 Ry
:2S 002: 2S                  -7.007232500 Ry

        3.ATOM      O 1                   1 CORE STATES
       CORE-FORCE in mRy/a.u. = |F|      Fx             Fy             Fz
:FCO003:   3.ATOM     40.465950974      0.000000000      0.000000000     40.465950974

:1S 003: 1S                 -36.473234919 Ry
:CINT001 Core Integral Atom   1   11.998454
:CINT002 Core Integral Atom   2    3.996067
:CINT003 Core Integral Atom   3    1.999999

       DENSITY AT NUCLEUS
        JATOM        VALENCE       SEMI-CORE          CORE           TOTAL
:RTO001:   1        8.803913        0.000000    22628.837408    22637.641322
:RTO002:   2        3.041044        0.000000     1487.128259     1490.169303
:RTO003:   3       14.417782        0.000000      303.788398      318.206180
     
       CHARGES OF NEW CHARGE DENSITY
:NTO   : INTERSTITIAL CHARGE =     7.065906
:NTO001: CHARGE SPHERE  1    =    27.343008
:NTO002: CHARGE SPHERE  2    =    10.672925
:NTO003: CHARGE SPHERE  3    =     6.456328

:NEC01: NUCLEAR AND ELECTRONIC CHARGE     58.00000    57.99450
     
       CHARGES OF OLD CHARGE DENSITY
:OTO   : INTERSTITIAL CHARGE =     6.701898
:OTO001: CHARGE SPHERE  1    =    27.349166
:OTO002: CHARGE SPHERE  2    =    10.686290
:OTO003: CHARGE SPHERE  3    =     6.631323

:NEC02: NUCLEAR AND ELECTRONIC CHARGE     58.00000    58.00000
     
       CONVERGENCE TEST
:DTO001: DIFFERENCE IN SPHERE  1 =  0.4566616
:DTO002: DIFFERENCE IN SPHERE  2 =  0.0841339
:DTO003: DIFFERENCE IN SPHERE  3 =  0.4188575

:DIS  :  CHARGE DISTANCE       ( 0.4566616 for atom    1 spin 1)      0.3446276
:BIG check (qbig,qrms,qtot)    0.152D+00   0.266D+00   0.345D+00
 
******************************************************
* MULTISECANT MIXING VER6 RELEASE 6.0 OPTIONS        *
* Standard Mode with controls                        *
* Regularization       1.000E-06                     *
* Trust Region Control Active                        *
* Max Number of Memory Steps    8                    *
******************************************************
 
:PLANE:  INTERSTITIAL TOTAL      1.63505 DISTAN  1.142E+01 % 
:CHARG:  CLM CHARGE   /ATOM     54.27666 DISTAN  8.957E-01 % 
:REDuction and DMIX in Broyd:    0.9585    0.1917
 
 Step History DMIX, Red, Pred, Trust, FRMS, FABS
  2  3.5000E-02  1.0000E+00  1.0000E+00  1.0000E+00
  3  8.7500E-02  8.2267E-01  1.0000E+00  1.0000E+00
  4  9.6111E-02  1.0000E+00  7.2023E-01  2.5672E+00
  
:NORMS:  Nuclear, Spectral, Froebius, Shanno-Pua   0.2180E+01  0.2166E+01  0.2166E+01  0.3890E+00
:INFO :  Number of Memory Steps    3 Skipping    0
:INFO :  SLambda=    2.1804720  Max    2.1804720

Eigenvalues, unscaled except for SY+YY
   #     SY Real        SY Imag          SS             YY         SY+YY Real      SY+YY Imag
   1   1.166521E+00   0.000000E+00   6.392651E-01   2.998682E+00   5.542219E+00   0.000000E+00
   2  -7.268282E-17   0.000000E+00   2.163919E-16   2.596341E-07   2.859368E-07   0.000000E+00
   3   3.769428E-04   0.000000E+00   1.325425E-04   1.317621E-03   2.169160E-03   0.000000E+00
 
:INFO :  Singular value   5.542E+00 Weight  1.0000E+00 Projections   1.119E+01 -1.239E-01
:INFO :  Singular value   2.169E-03 Weight  1.0000E+00 Projections   2.325E+01 -3.893E+01
:INFO :  Singular value   2.859E-07 Weight  9.0105E-03 Projections  -3.399E+01  1.746E+01
 
:DIRM :  MEMORY 3/8 RESCALE   6.70 RED 0.647 PRED 0.720 NEXT 0.819
:INFO :  Blimit    2.052E+00  1.007E+00  7.728E-01  3.112E+00
:DIRP :  |MSR1|= 3.904E-01 |PRATT|= 1.251E+00 ANGLE=  10.1 DEGREES
:DIRQ :  |MSR1|= 3.938E-01 |PRATT|= 1.459E+00 ANGLE=  18.7 DEGREES
:DIR  :  |MSR1|= 5.546E-01 |PRATT|= 1.921E+00 ANGLE=  15.9 DEGREES
:MIX  :   MSE1   REGULARIZATION: 3.00E-06  GREED: 0.116  Newton 1.00  0.29                
     
       CHARGES OF MIXED CHARGE DENSITY
:CTO   : INTERSTITIAL CHARGE =     6.799056
:CTO001: CHARGE SPHERE  1    =    27.350813
:CTO002: CHARGE SPHERE  2    =    10.677028
:CTO003: CHARGE SPHERE  3    =     6.586551

:NEC03: NUCLEAR AND ELECTRONIC CHARGE     58.00000    58.00000

PW CHANGE     H    K    L       Current     Change     Residue
:PTO001:      0    0    0  6.27177159E-02 -4.328E-04 -1.386E-03
:PTO002:     -1   -1   -1 -2.21875713E-02 -6.237E-04 -6.855E-04
:PTO003:     -2   -2   -2 -7.83554899E-03 -8.757E-04 -2.248E-03
:PTO004:     -1    0    0  1.06572400E-01 -1.514E-03 -7.479E-03
:PTO005:     -1   -1    0  5.17436883E-02 -3.046E-03 -9.771E-03
:PTO006:     -2   -1   -1 -6.88641481E-02 -2.741E-03 -6.714E-03
:PTO007:     -2   -2   -1 -7.28957223E-02 -9.288E-04 -1.620E-03
:PTO008:     -3   -3   -3  2.87631726E-02 -4.170E-04 -1.889E-03
:PTO009:     -3   -2   -2  1.47349832E-02 -8.517E-04 -3.183E-03
:PTO010:     -3   -3   -2  4.52152960E-02 -2.516E-03 -8.970E-03
:PTO011:     -1    0    1  3.56662210E-02 -3.514E-03 -1.159E-02
:PTO012:     -4   -4   -4 -4.49755615E-03 -4.475E-04 -1.665E-03

:ENE  : ********** TOTAL ENERGY IN Ry =        -4097.04261064

       TOTAL FORCE IN mRy/a.u. = |F|     Fx             Fy             Fz     with/without FOR in case.in2
:FOR001:   1.ATOM          0.000          0.000          0.000          0.000 partial forces
:FOR002:   2.ATOM          0.000          0.000          0.000          0.000 partial forces
:FOR003:   3.ATOM         70.917          0.000          0.000        -70.917 partial forces
       TOTAL FORCE WITH RESPECT TO GLOBAL CARTESIAN COORDINATES:
:FCA001:   1.ATOM                         0.000          0.000          0.000 partial forces
:FCA002:   2.ATOM                         0.000          0.000          0.000 partial forces
:FCA003:   3.ATOM                         0.000          0.000        -70.917 partial forces
       TOTAL FORCE WITH RESPECT TO THE GLOBAL COORDINATE SYSTEM:
:FGL001:   1.ATOM                 0.000000000     0.000000000     0.000000000 partial forces
:FGL002:   2.ATOM                 0.000000000     0.000000000     0.000000000 partial forces
:FGL003:   3.ATOM               -70.916825217   -70.916825217   -70.916825217 partial forces


            ---------
:ITE005:  5. ITERATION
            ---------

:NATO :    3 INDEPENDENT AND    4 TOTAL ATOMS IN UNITCELL
       SUBSTANCE: CuAlO2 BenkoF84                                             

       LATTICE                      = R   
:POT  : POTENTIAL OPTION EX_PBE EC_PBE VX_PBE VC_PBE
:LAT  : LATTICE CONSTANTS=  5.40508  5.40508 32.03482
:VOL  : UNIT CELL VOLUME =     270.16967
       MODE OF CALCULATION IS       = RELA
       NON-SPINPOLARIZED CALCULATION
:IFFT  : FFT-parameters:   90   90   90 Factor: 2.00
       ATOMNUMBER=  1 Cu1        VCOUL-ZERO =  0.33991E+00
:EFG001:                        EFG         =    -3.30739   *10**21  V / m**2
                               V20  TOT/SRF=    -2.86428     0.12620
                               V22  TOT/SRF=     0.00000     0.00000
                               V22M TOT/SRF=     0.00000     0.00000
                               V21  TOT/SRF=     0.00000     0.00000
                               V21M TOT/SRF=     0.00000     0.00000

              1.65370    0.00000    0.00000        1.65370    0.00000    0.00000
              0.00000    1.65370    0.00000        0.00000    1.65370    0.00000
              0.00000    0.00000   -3.30739        0.00000    0.00000   -3.30739

         MAIN DIRECTIONS OF THE EFG   1.0000  0.0000  0.0000
                                      0.0000  1.0000  0.0000
                                      0.0000  0.0000  1.0000
:ANG001:  ANGLE WITH OLD X-AXIS =         0.0

:ETA001:                         ASYMM. ETA =     0.00000


       ATOMNUMBER=  2 Al1        VCOUL-ZERO = -0.85069E-01
:EFG002:                        EFG         =     0.85150   *10**21  V / m**2
                               V20  TOT/SRF=     0.73742    -0.02430
                               V22  TOT/SRF=     0.00000     0.00000
                               V22M TOT/SRF=     0.00000     0.00000
                               V21  TOT/SRF=     0.00000     0.00000
                               V21M TOT/SRF=     0.00000     0.00000

             -0.42575    0.00000    0.00000       -0.42575    0.00000    0.00000
              0.00000   -0.42575    0.00000        0.00000   -0.42575    0.00000
              0.00000    0.00000    0.85150        0.00000    0.00000    0.85150

         MAIN DIRECTIONS OF THE EFG   1.0000  0.0000  0.0000
                                      0.0000  1.0000  0.0000
                                      0.0000  0.0000  1.0000
:ANG002:  ANGLE WITH OLD X-AXIS =         0.0

:ETA002:                         ASYMM. ETA =     0.00000


       ATOMNUMBER=  3 O 1        VCOUL-ZERO =  0.17507E+00
:EFG003:                        EFG         =     2.32277   *10**21  V / m**2
                               V20  TOT/SRF=     2.01158     0.27947
                               V22  TOT/SRF=     0.00000     0.00000
                               V22M TOT/SRF=     0.00000     0.00000
                               V21  TOT/SRF=     0.00000     0.00000
                               V21M TOT/SRF=     0.00000     0.00000

             -1.16139    0.00000    0.00000       -1.16139    0.00000    0.00000
              0.00000   -1.16139    0.00000        0.00000   -1.16139    0.00000
              0.00000    0.00000    2.32277        0.00000    0.00000    2.32277

         MAIN DIRECTIONS OF THE EFG   1.0000  0.0000  0.0000
                                      0.0000  1.0000  0.0000
                                      0.0000  0.0000  1.0000
:ANG003:  ANGLE WITH OLD X-AXIS =         0.0

:ETA003:                         ASYMM. ETA =     0.00000


     HELLMANN-FEYNMAN-FORCE IN mRy/a.u. = |F|  Fx       Fy             Fz
:FHF001:   1.ATOM      0.000000000      0.000000000      0.000000000      0.000000000

     HELLMANN-FEYNMAN-FORCE IN mRy/a.u. = |F|  Fx       Fy             Fz
:FHF002:   2.ATOM      0.000000000      0.000000000      0.000000000      0.000000000

     HELLMANN-FEYNMAN-FORCE IN mRy/a.u. = |F|  Fx       Fy             Fz
:FHF003:   3.ATOM     78.597385270      0.000000000      0.000000000    -78.597385270

:FIT001: LUSE= 13 SIGMA OF V-XC FIT FOR ATOM  1  0.8080692E-02
:FIT001: LUSE= 13 SIGMA OF V-XC FIT FOR ATOM  1  0.8080692E-02
:FIT002: LUSE= 13 SIGMA OF V-XC FIT FOR ATOM  2  0.4461973E-02
:FIT002: LUSE= 13 SIGMA OF V-XC FIT FOR ATOM  2  0.4461973E-02
:FIT003: LUSE= 13 SIGMA OF V-XC FIT FOR ATOM  3  0.1075528E-03
:FIT003: LUSE= 13 SIGMA OF V-XC FIT FOR ATOM  3  0.1075528E-03
:DEN  : DENSITY INTEGRAL  =         -1796.07431511   (Ry)
       ELS_POTENTIAL_AT Z=0 and Z=0.5:   0.00000   0.00000
       ELS_POTENTIAL_AT Y=0 and Y=0.5:   0.00000   0.00000
:VZERO:v0,v0c,v0x  -0.79521   0.00000  -0.79521 v5,v5c,v5x  -0.79521   0.00000  -0.79521
:VZERY:v0,v0c,v0x  -0.79521   0.00000  -0.79521 v5,v5c,v5x  -0.79521   0.00000  -0.79521
:VZERX:v0,v0c,v0x  -2.21798  -1.02769  -1.19028 v5,v5c,v5x  -0.10042   0.25446  -0.35488

          ATOMIC SPHERE DEPENDENT PARAMETERS FOR ATOM  Cu1       
:e__0001: OVERALL ENERGY PARAMETER IS    0.3236
          OVERALL BASIS SET ON ATOM IS LAPW
:E1_0001: E( 1)=    0.3236
             APW+lo
:E1_0001: E( 1)=   -4.6085   E(BOTTOM)=   -4.676   E(TOP)=   -4.541  1  2   172
             LOCAL ORBITAL
:E2_0001: E( 2)=    0.3135   E(BOTTOM)=   -0.019   E(TOP)=    0.646  0  1   131
             APW+lo
:E0_0001: E( 0)=    0.3236
             APW+lo

          ATOMIC SPHERE DEPENDENT PARAMETERS FOR ATOM  Al1       
:e__0002: OVERALL ENERGY PARAMETER IS    0.3236
          OVERALL BASIS SET ON ATOM IS LAPW
:E1_0002: E( 1)=    0.3236
             APW+lo
:E1_0002: E( 1)=   -4.1949   E(BOTTOM)=   -4.297   E(TOP)=   -4.092  0  1   156
             LOCAL ORBITAL
:E0_0002: E( 0)=    0.3236
             APW+lo

          ATOMIC SPHERE DEPENDENT PARAMETERS FOR ATOM  O 1       
:e__0003: OVERALL ENERGY PARAMETER IS    0.3236
          OVERALL BASIS SET ON ATOM IS LAPW
:E0_0003: E( 0)=   -1.5500   E(BOTTOM)=   -2.559   E(TOP)= -200.000  1 -1   230
             APW+lo
:E0_0003: E( 0)=    0.7236
             LOCAL ORBITAL
:E1_0003: E( 1)=    0.3236
             APW+lo

       K=   0.00000   0.00000   0.00000            1
:RKM  : MATRIX SIZE   404LOs:  29  RKM= 5.99  WEIGHT= 1.00  PGR:    
       EIGENVALUES ARE:
:EIG00001:      -4.5996252   -4.5903739   -4.5903739   -4.1702075   -4.1686397
:EIG00006:      -4.1686397   -1.0221860   -0.8669153   -0.0924779    0.2018758
:EIG00011:       0.2393144    0.2393144    0.2510794    0.3348763    0.3348763
:EIG00016:       0.3452298    0.3452298    0.4113741    0.4113741    0.6370545
:EIG00021:       0.9573802    1.0433507    1.3649837    1.5287314    1.5287314
:EIG00026:       1.6335637    1.6335637    1.6354875    1.8762880    1.9423878
:EIG00031:       1.9423878
       ********************************************************

:KPT   :      NUMBER OF K-POINTS:    13
       Insulator, EF-inconsistency corrected
:GAP  :    0.1523 Ry =     2.071 eV   (provided you have a proper k-mesh)
         Bandranges (emin - emax) and occupancy:
:BAN00009:   9   -0.092478    0.012964  2.00000000
:BAN00010:  10   -0.035932    0.201876  2.00000000
:BAN00011:  11    0.045791    0.239314  2.00000000
:BAN00012:  12    0.161945    0.270607  2.00000000
:BAN00013:  13    0.190016    0.274099  2.00000000
:BAN00014:  14    0.213575    0.334876  2.00000000
:BAN00015:  15    0.282232    0.335336  2.00000000
:BAN00016:  16    0.345230    0.373875  2.00000000
:BAN00017:  17    0.345230    0.401113  2.00000000
:BAN00018:  18    0.381036    0.435213  2.00000000
:BAN00019:  19    0.402296    0.484752  2.00000000
:BAN00020:  20    0.637054    0.765753  0.00000000
:BAN00021:  21    0.839802    1.077853  0.00000000
:BAN00022:  22    1.037596    1.224341  0.00000000
:BAN00023:  23    1.137431    1.411747  0.00000000
:BAN00024:  24    1.275084    1.532606  0.00000000
        Energy to separate low and high energystates:   -0.14248


:NOE  : NUMBER OF ELECTRONS          =  38.000

:FER  : F E R M I - ENERGY(TETRAH.M.)=   0.4847520072
:GMA  : POTENTIAL AND CHARGE CUT-OFF  12.00 Ry**.5




:POS001: ATOM   -1 X,Y,Z = 0.00000 0.00000 0.00000  MULT= 1  ZZ= 29.000  Cu1       

       LMMAX  7
       LM=   0 0  2 0  4 0  4 3  6 0  6 3  6 6

:CHA001: TOTAL VALENCE CHARGE INSIDE SPHERE   1 =  15.4293    (RMT=  2.0000 )
:PCS001: PARTIAL CHARGES SPHERE =  1 S,P,D,F,PZ,PXY, D-Z2,D-XY,X2Y2,D-XZ,YZ 
:QTL001: 0.2890 6.1618 8.9548 0.0180 2.1145 4.0473 0.0000 1.5906 3.6330 3.7311 0.0000 0.0000
        Q-s-low E-s-low   Q-p-low E-p-low   Q-d-low E-d-low   Q-f-low E-f-low
:EPL001:  0.0185 -0.8914    6.0026 -4.5818    0.0216 -0.8887    0.0028 -0.8840
        Q-s-hi  E-s-hi    Q-p-hi  E-p-hi    Q-d-hi  E-d-hi    Q-f-hi  E-f-hi 
:EPH001:  0.2705  0.2123    0.1592  0.1920    8.9332  0.3499    0.0152  0.1962
:VZZ001: EFG INSIDE SPHERE   1 =    -7.220335      UP TO R =   2.00000




:POS002: ATOM   -2 X,Y,Z = 0.50000 0.50000 0.50000  MULT= 1  ZZ= 13.000  Al1       

       LMMAX  7
       LM=   0 0  2 0  4 0  4 3  6 0  6 3  6 6

:CHA002: TOTAL VALENCE CHARGE INSIDE SPHERE   2 =   6.6531    (RMT=  1.8000 )
:PCS002: PARTIAL CHARGES SPHERE =  2 S,P,D,F,PZ,PXY, D-Z2,D-XY,X2Y2,D-XZ,YZ 
:QTL002: 0.2315 6.2637 0.1332 0.0205 2.0794 4.1843 0.0000 0.0099 0.0560 0.0674 0.0000 0.0000
        Q-s-low E-s-low   Q-p-low E-p-low   Q-d-low E-d-low   Q-f-low E-f-low
:EPL002:  0.0376 -0.9562    6.0143 -4.1460    0.0169 -0.8609    0.0029 -0.8833
        Q-s-hi  E-s-hi    Q-p-hi  E-p-hi    Q-d-hi  E-d-hi    Q-f-hi  E-f-hi 
:EPH002:  0.1939  0.0258    0.2495  0.1463    0.1163  0.2042    0.0175  0.2191
:VZZ002: EFG INSIDE SPHERE   2 =     1.195761      UP TO R =   1.80000




:POS003: ATOM   -3 X,Y,Z = 0.10979 0.10979 0.10979  MULT= 2  ZZ=  8.000  O 1       

       LMMAX 12
       LM=   0 0  1 0  2 0  3 0  3 3  4 0  4 3  5 0  5 3  6 0  6 3  6 6

:CHA003: TOTAL VALENCE CHARGE INSIDE SPHERE   3 =   4.5233    (RMT=  1.4000 )
:PCS003: PARTIAL CHARGES SPHERE =  3 S,P,D,F,PZ,PXY, D-Z2,D-XY,X2Y2,D-XZ,YZ 
:QTL003: 1.3722 3.1434 0.0068 0.0008 1.0075 2.1359 0.0000 0.0015 0.0013 0.0041 0.0000 0.0000
        Q-s-low E-s-low   Q-p-low E-p-low   Q-d-low E-d-low   Q-f-low E-f-low
:EPL003:  1.3181 -0.8900    0.0047 -1.1435    0.0003 -2.3867    0.0001 -2.2469
        Q-s-hi  E-s-hi    Q-p-hi  E-p-hi    Q-d-hi  E-d-hi    Q-f-hi  E-f-hi 
:EPH003:  0.0541  0.0849    3.1387  0.1793    0.0066  0.2643    0.0007  0.2935
:VZZ003: EFG INSIDE SPHERE   3 =     3.811684      UP TO R =   1.40000

:CHA  : TOTAL VALENCE CHARGE INSIDE UNIT CELL =      38.000000

:SUM  : SUM OF EIGENVALUES =         -50.777343016


        1.ATOM      Cu1                   5 CORE STATES
:1S 001: 1S                -649.677001264 Ry
:2S 001: 2S                 -77.373830588 Ry
:2PP001: 2P*                -67.690890911 Ry
:2P 001: 2P                 -66.184641552 Ry
:3S 001: 3S                  -7.725722086 Ry

        2.ATOM      Al1                   2 CORE STATES
:1S 002: 1S                -110.112457107 Ry
:2S 002: 2S                  -7.000945617 Ry

        3.ATOM      O 1                   1 CORE STATES
       CORE-FORCE in mRy/a.u. = |F|      Fx             Fy             Fz
:FCO003:   3.ATOM     14.678757940      0.000000000      0.000000000     14.678757940

:1S 003: 1S                 -36.567607589 Ry
:CINT001 Core Integral Atom   1   11.998498
:CINT002 Core Integral Atom   2    3.996057
:CINT003 Core Integral Atom   3    1.999999

       DENSITY AT NUCLEUS
        JATOM        VALENCE       SEMI-CORE          CORE           TOTAL
:RTO001:   1        8.294272        0.000000    22630.479895    22638.774167
:RTO002:   2        2.929568        0.000000     1487.009734     1489.939302
:RTO003:   3       14.593430        0.000000      303.881377      318.474807
     
       CHARGES OF NEW CHARGE DENSITY
:NTO   : INTERSTITIAL CHARGE =     6.870953
:NTO001: CHARGE SPHERE  1    =    27.427805
:NTO002: CHARGE SPHERE  2    =    10.649127
:NTO003: CHARGE SPHERE  3    =     6.523322

:NEC01: NUCLEAR AND ELECTRONIC CHARGE     58.00000    57.99453
     
       CHARGES OF OLD CHARGE DENSITY
:OTO   : INTERSTITIAL CHARGE =     6.799056
:OTO001: CHARGE SPHERE  1    =    27.350813
:OTO002: CHARGE SPHERE  2    =    10.677028
:OTO003: CHARGE SPHERE  3    =     6.586551

:NEC02: NUCLEAR AND ELECTRONIC CHARGE     58.00000    58.00000
     
       CONVERGENCE TEST
:DTO001: DIFFERENCE IN SPHERE  1 =  0.0686289
:DTO002: DIFFERENCE IN SPHERE  2 =  0.0474517
:DTO003: DIFFERENCE IN SPHERE  3 =  0.2301108

:DIS  :  CHARGE DISTANCE       ( 0.2301108 for atom    3 spin 1)      0.1440756
:BIG check (qbig,qrms,qtot)    0.767D-01   0.119D+00   0.144D+00
 
******************************************************
* MULTISECANT MIXING VER6 RELEASE 6.0 OPTIONS        *
* Standard Mode with controls                        *
* Regularization       1.000E-06                     *
* Trust Region Control Active                        *
* Max Number of Memory Steps    8                    *
******************************************************
 
:PLANE:  INTERSTITIAL TOTAL      1.61854 DISTAN  7.916E+00 % 
:CHARG:  CLM CHARGE   /ATOM     54.24134 DISTAN  4.135E-01 % 
 
 Step History DMIX, Red, Pred, Trust, FRMS, FABS
  2  3.5000E-02  1.0000E+00  1.0000E+00  1.0000E+00
  3  8.7500E-02  8.2267E-01  1.0000E+00  1.0000E+00
  4  9.6111E-02  6.4680E-01  7.2023E-01  2.5672E+00
  5  1.1591E-01  1.0000E+00  8.1850E-01  3.1119E+00
  
:NORMS:  Nuclear, Spectral, Froebius, Shanno-Pua   0.1813E+01  0.1629E+01  0.1720E+01  0.4529E+00
:INFO :  Number of Memory Steps    4 Skipping    0
:INFO :  SLambda=    1.8127948  Max    1.8127948

Eigenvalues, unscaled except for SY+YY
   #     SY Real        SY Imag          SS             YY         SY+YY Real      SY+YY Imag
   1   1.506690E+00   0.000000E+00   1.191665E+00   3.163069E+00   5.776749E+00   0.000000E+00
   2   4.223596E-01   0.000000E+00   1.610831E-01   8.364969E-01   1.719717E+00   0.000000E+00
   3   1.611012E-16   0.000000E+00   4.370351E-17   3.233884E-07   3.265712E-07   0.000000E+00
   4   9.639760E-05   0.000000E+00   1.961967E-05   4.340322E-04   6.800571E-04   0.000000E+00
 
:INFO :  Singular value   5.783E+00 Weight  1.0000E+00 Projections  -2.503E+01  1.980E-01
:INFO :  Singular value   1.718E+00 Weight  1.0000E+00 Projections  -5.176E+00  8.779E-01
:INFO :  Singular value   6.801E-04 Weight  9.9998E-01 Projections   2.828E+01 -3.804E+01
:INFO :  Singular value   3.266E-07 Weight  1.0547E-02 Projections  -5.284E+00 -5.768E+00
 
:DIRM :  MEMORY 4/8 RESCALE   6.38 RED 0.562 PRED 0.819 NEXT 0.388
:INFO :  Blimit    2.847E+00  1.113E+00  9.971E-01  4.438E+00
:DIRP :  |MSR1|= 8.458E-01 |PRATT|= 8.174E-01 ANGLE=  12.6 DEGREES
:DIRQ :  |MSR1|= 5.254E-01 |PRATT|= 6.729E-01 ANGLE=  37.5 DEGREES
:DIR  :  |MSR1|= 9.957E-01 |PRATT|= 1.059E+00 ANGLE=  25.0 DEGREES
:MIX  :   MSE1   REGULARIZATION: 3.16E-06  GREED: 0.150  Newton 1.00  0.94                
     
       CHARGES OF MIXED CHARGE DENSITY
:CTO   : INTERSTITIAL CHARGE =     6.822046
:CTO001: CHARGE SPHERE  1    =    27.392595
:CTO002: CHARGE SPHERE  2    =    10.628525
:CTO003: CHARGE SPHERE  3    =     6.578417

:NEC03: NUCLEAR AND ELECTRONIC CHARGE     58.00000    58.00000

[...]
:PTO001:      0    0    0  6.06288839E-02 -2.012E-08 -3.749E-08
:PTO002:     -1   -1   -1 -2.32815938E-02  2.289E-09 -7.244E-09
:PTO003:     -2   -2   -2 -9.89574613E-03  2.127E-08  3.058E-08
:PTO004:     -1    0    0  1.01783835E-01 -2.530E-09 -6.544E-09
:PTO005:     -1   -1    0  4.49249961E-02 -2.146E-08 -2.701E-08
:PTO006:     -2   -1   -1 -7.44014722E-02  4.751E-08  4.221E-08
:PTO007:     -2   -2   -1 -7.51338398E-02  8.712E-08  8.273E-08
:PTO008:     -3   -3   -3  2.75659919E-02 -1.625E-08 -1.691E-08
:PTO009:     -3   -2   -2  1.24274613E-02  2.617E-08  3.383E-08
:PTO010:     -3   -3   -2  3.96501743E-02 -2.190E-08 -1.032E-08
:PTO011:     -1    0    1  2.87658086E-02 -5.922E-08 -5.431E-08
:PTO012:     -4   -4   -4 -5.62372689E-03  1.043E-08  8.365E-09

:ENE  : ********** TOTAL ENERGY IN Ry =        -4097.01625999

       TOTAL FORCE IN mRy/a.u. = |F|     Fx             Fy             Fz     with/without FOR in case.in2
:FOR001:   1.ATOM          0.000          0.000          0.000          0.000 partial forces
:FOR002:   2.ATOM          0.000          0.000          0.000          0.000 partial forces
:FOR003:   3.ATOM         10.896          0.000          0.000        -10.896 partial forces
       TOTAL FORCE WITH RESPECT TO GLOBAL CARTESIAN COORDINATES:
:FCA001:   1.ATOM                         0.000          0.000          0.000 partial forces
:FCA002:   2.ATOM                         0.000          0.000          0.000 partial forces
:FCA003:   3.ATOM                         0.000          0.000        -10.896 partial forces
       TOTAL FORCE WITH RESPECT TO THE GLOBAL COORDINATE SYSTEM:
:FGL001:   1.ATOM                 0.000000000     0.000000000     0.000000000 partial forces
:FGL002:   2.ATOM                 0.000000000     0.000000000     0.000000000 partial forces
:FGL003:   3.ATOM               -10.895631371   -10.895631371   -10.895631371 partial forces


            ---------
:ITE017: 17. ITERATION
            ---------

:NATO :    3 INDEPENDENT AND    4 TOTAL ATOMS IN UNITCELL
       SUBSTANCE: CuAlO2 BenkoF84                                             

       LATTICE                      = R   
:POT  : POTENTIAL OPTION EX_PBE EC_PBE VX_PBE VC_PBE
:LAT  : LATTICE CONSTANTS=  5.40508  5.40508 32.03482
:VOL  : UNIT CELL VOLUME =     270.16967
       MODE OF CALCULATION IS       = RELA
       NON-SPINPOLARIZED CALCULATION
:IFFT  : FFT-parameters:   90   90   90 Factor: 2.00
       ATOMNUMBER=  1 Cu1        VCOUL-ZERO =  0.35828E+00
:EFG001:                        EFG         =    -5.89163   *10**21  V / m**2
                               V20  TOT/SRF=    -5.10230     0.14503
                               V22  TOT/SRF=     0.00000     0.00000
                               V22M TOT/SRF=     0.00000     0.00000
                               V21  TOT/SRF=     0.00000     0.00000
                               V21M TOT/SRF=     0.00000     0.00000

              2.94581    0.00000    0.00000        2.94581    0.00000    0.00000
              0.00000    2.94581    0.00000        0.00000    2.94581    0.00000
              0.00000    0.00000   -5.89163        0.00000    0.00000   -5.89163

         MAIN DIRECTIONS OF THE EFG   1.0000  0.0000  0.0000
                                      0.0000  1.0000  0.0000
                                      0.0000  0.0000  1.0000
:ANG001:  ANGLE WITH OLD X-AXIS =         0.0

:ETA001:                         ASYMM. ETA =     0.00000


       ATOMNUMBER=  2 Al1        VCOUL-ZERO = -0.10847E+00
:EFG002:                        EFG         =     1.13904   *10**21  V / m**2
                               V20  TOT/SRF=     0.98644    -0.03046
                               V22  TOT/SRF=     0.00000     0.00000
                               V22M TOT/SRF=     0.00000     0.00000
                               V21  TOT/SRF=     0.00000     0.00000
                               V21M TOT/SRF=     0.00000     0.00000

             -0.56952    0.00000    0.00000       -0.56952    0.00000    0.00000
              0.00000   -0.56952    0.00000        0.00000   -0.56952    0.00000
              0.00000    0.00000    1.13904        0.00000    0.00000    1.13904

         MAIN DIRECTIONS OF THE EFG   1.0000  0.0000  0.0000
                                      0.0000  1.0000  0.0000
                                      0.0000  0.0000  1.0000
:ANG002:  ANGLE WITH OLD X-AXIS =         0.0

:ETA002:                         ASYMM. ETA =     0.00000


       ATOMNUMBER=  3 O 1        VCOUL-ZERO =  0.17845E+00
:EFG003:                        EFG         =     3.55093   *10**21  V / m**2
                               V20  TOT/SRF=     3.07520     0.29261
                               V22  TOT/SRF=     0.00000     0.00000
                               V22M TOT/SRF=     0.00000     0.00000
                               V21  TOT/SRF=     0.00000     0.00000
                               V21M TOT/SRF=     0.00000     0.00000

             -1.77547    0.00000    0.00000       -1.77547    0.00000    0.00000
              0.00000   -1.77547    0.00000        0.00000   -1.77547    0.00000
              0.00000    0.00000    3.55093        0.00000    0.00000    3.55093

         MAIN DIRECTIONS OF THE EFG   1.0000  0.0000  0.0000
                                      0.0000  1.0000  0.0000
                                      0.0000  0.0000  1.0000
:ANG003:  ANGLE WITH OLD X-AXIS =         0.0

:ETA003:                         ASYMM. ETA =     0.00000


     HELLMANN-FEYNMAN-FORCE IN mRy/a.u. = |F|  Fx       Fy             Fz
:FHF001:   1.ATOM      0.000000000      0.000000000      0.000000000      0.000000000

     HELLMANN-FEYNMAN-FORCE IN mRy/a.u. = |F|  Fx       Fy             Fz
:FHF002:   2.ATOM      0.000000000      0.000000000      0.000000000      0.000000000

     HELLMANN-FEYNMAN-FORCE IN mRy/a.u. = |F|  Fx       Fy             Fz
:FHF003:   3.ATOM     19.528621290      0.000000000      0.000000000    -19.528621290

:FIT001: LUSE= 13 SIGMA OF V-XC FIT FOR ATOM  1  0.8153672E-02
:FIT001: LUSE= 13 SIGMA OF V-XC FIT FOR ATOM  1  0.8153672E-02
:FIT002: LUSE= 13 SIGMA OF V-XC FIT FOR ATOM  2  0.6400111E-02
:FIT002: LUSE= 13 SIGMA OF V-XC FIT FOR ATOM  2  0.6400111E-02
:FIT003: LUSE= 13 SIGMA OF V-XC FIT FOR ATOM  3  0.2180914E-03
:FIT003: LUSE= 13 SIGMA OF V-XC FIT FOR ATOM  3  0.2180914E-03
:DEN  : DENSITY INTEGRAL  =         -1795.35686017   (Ry)
       ELS_POTENTIAL_AT Z=0 and Z=0.5:   0.00000   0.00000
       ELS_POTENTIAL_AT Y=0 and Y=0.5:   0.00000   0.00000
:VZERO:v0,v0c,v0x  -0.78290   0.00000  -0.78290 v5,v5c,v5x  -0.78290   0.00000  -0.78290
:VZERY:v0,v0c,v0x  -0.78290   0.00000  -0.78290 v5,v5c,v5x  -0.78290   0.00000  -0.78290
:VZERX:v0,v0c,v0x  -2.13696  -0.99503  -1.14193 v5,v5c,v5x  -0.08670   0.23244  -0.31914

          ATOMIC SPHERE DEPENDENT PARAMETERS FOR ATOM  Cu1       
:e__0001: OVERALL ENERGY PARAMETER IS    0.2974
          OVERALL BASIS SET ON ATOM IS LAPW
:E1_0001: E( 1)=    0.2974
             APW+lo
:E1_0001: E( 1)=   -4.5854   E(BOTTOM)=   -4.653   E(TOP)=   -4.518  1  2   177
             LOCAL ORBITAL
:E2_0001: E( 2)=    0.3360   E(BOTTOM)=    0.004   E(TOP)=    0.668  0  1   135
             APW+lo
:E0_0001: E( 0)=    0.2974
             APW+lo

          ATOMIC SPHERE DEPENDENT PARAMETERS FOR ATOM  Al1       
:e__0002: OVERALL ENERGY PARAMETER IS    0.2974
          OVERALL BASIS SET ON ATOM IS LAPW
:E1_0002: E( 1)=    0.2974
             APW+lo
:E1_0002: E( 1)=   -4.2308   E(BOTTOM)=   -4.333   E(TOP)=   -4.129  0  1   160
             LOCAL ORBITAL
:E0_0002: E( 0)=    0.2974
             APW+lo

          ATOMIC SPHERE DEPENDENT PARAMETERS FOR ATOM  O 1       
:e__0003: OVERALL ENERGY PARAMETER IS    0.2974
          OVERALL BASIS SET ON ATOM IS LAPW
:E0_0003: E( 0)=   -1.5500   E(BOTTOM)=   -2.588   E(TOP)= -200.000  1 -1   229
             APW+lo
:E0_0003: E( 0)=    0.6974
             LOCAL ORBITAL
:E1_0003: E( 1)=    0.2974
             APW+lo

       K=   0.00000   0.00000   0.00000            1
:RKM  : MATRIX SIZE   404LOs:  29  RKM= 5.99  WEIGHT= 1.00  PGR:    
       EIGENVALUES ARE:
:EIG00001:      -4.5799490   -4.5655847   -4.5655847   -4.2062158   -4.2047826
:EIG00006:      -4.2047826   -1.0476721   -0.8934164   -0.1071705    0.2175945
:EIG00011:       0.2180719    0.2180719    0.2261818    0.3045485    0.3045485
:EIG00016:       0.3692419    0.3692419    0.4239860    0.4239860    0.6384719
:EIG00021:       0.9481835    1.0287665    1.3629039    1.5124107    1.5124107
:EIG00026:       1.6208027    1.6208027    1.6211480    1.8838288    1.9537367
:EIG00031:       1.9537367
       ********************************************************

:KPT   :      NUMBER OF K-POINTS:    13
       Insulator, EF-inconsistency corrected
:GAP  :    0.1411 Ry =     1.919 eV   (provided you have a proper k-mesh)
         Bandranges (emin - emax) and occupancy:
:BAN00009:   9   -0.107170   -0.008306  2.00000000
:BAN00010:  10   -0.054396    0.217595  2.00000000
:BAN00011:  11    0.025632    0.232301  2.00000000
:BAN00012:  12    0.144883    0.240932  2.00000000
:BAN00013:  13    0.168899    0.255152  2.00000000
:BAN00014:  14    0.193997    0.304548  2.00000000
:BAN00015:  15    0.268021    0.354618  2.00000000
:BAN00016:  16    0.368861    0.388826  2.00000000
:BAN00017:  17    0.369242    0.425698  2.00000000
:BAN00018:  18    0.396852    0.440092  2.00000000
:BAN00019:  19    0.416720    0.497350  2.00000000
:BAN00020:  20    0.638472    0.766492  0.00000000
:BAN00021:  21    0.829769    1.087744  0.00000000
:BAN00022:  22    1.026373    1.203517  0.00000000
:BAN00023:  23    1.128934    1.399463  0.00000000
:BAN00024:  24    1.269840    1.516334  0.00000000
        Energy to separate low and high energystates:   -0.15717


:NOE  : NUMBER OF ELECTRONS          =  38.000

:FER  : F E R M I - ENERGY(TETRAH.M.)=   0.4973499348
:GMA  : POTENTIAL AND CHARGE CUT-OFF  12.00 Ry**.5




:POS001: ATOM   -1 X,Y,Z = 0.00000 0.00000 0.00000  MULT= 1  ZZ= 29.000  Cu1       

       LMMAX  7
       LM=   0 0  2 0  4 0  4 3  6 0  6 3  6 6

:CHA001: TOTAL VALENCE CHARGE INSIDE SPHERE   1 =  15.3751    (RMT=  2.0000 )
:PCS001: PARTIAL CHARGES SPHERE =  1 S,P,D,F,PZ,PXY, D-Z2,D-XY,X2Y2,D-XZ,YZ 
:QTL001: 0.2767 6.1547 8.9200 0.0179 2.1097 4.0450 0.0000 1.5747 3.6212 3.7241 0.0000 0.0000
        Q-s-low E-s-low   Q-p-low E-p-low   Q-d-low E-d-low   Q-f-low E-f-low
:EPL001:  0.0174 -0.9183    6.0017 -4.5594    0.0203 -0.9158    0.0028 -0.9128
        Q-s-hi  E-s-hi    Q-p-hi  E-p-hi    Q-d-hi  E-d-hi    Q-f-hi  E-f-hi 
:EPH001:  0.2593  0.2089    0.1530  0.1784    8.8997  0.3713    0.0151  0.1732
:VZZ001: EFG INSIDE SPHERE   1 =    -6.142011      UP TO R =   2.00000




:POS002: ATOM   -2 X,Y,Z = 0.50000 0.50000 0.50000  MULT= 1  ZZ= 13.000  Al1       

       LMMAX  7
       LM=   0 0  2 0  4 0  4 3  6 0  6 3  6 6

:CHA002: TOTAL VALENCE CHARGE INSIDE SPHERE   2 =   6.6481    (RMT=  1.8000 )
:PCS002: PARTIAL CHARGES SPHERE =  2 S,P,D,F,PZ,PXY, D-Z2,D-XY,X2Y2,D-XZ,YZ 
:QTL002: 0.2296 6.2610 0.1326 0.0206 2.0781 4.1829 0.0000 0.0098 0.0559 0.0669 0.0000 0.0000
        Q-s-low E-s-low   Q-p-low E-p-low   Q-d-low E-d-low   Q-f-low E-f-low
:EPL002:  0.0372 -0.9828    6.0143 -4.1822    0.0170 -0.8885    0.0030 -0.9108
        Q-s-hi  E-s-hi    Q-p-hi  E-p-hi    Q-d-hi  E-d-hi    Q-f-hi  E-f-hi 
:EPH002:  0.1924  0.0028    0.2468  0.1215    0.1156  0.1790    0.0176  0.1939
:VZZ002: EFG INSIDE SPHERE   2 =     1.240109      UP TO R =   1.80000




:POS003: ATOM   -3 X,Y,Z = 0.10979 0.10979 0.10979  MULT= 2  ZZ=  8.000  O 1       

       LMMAX 12
       LM=   0 0  1 0  2 0  3 0  3 3  4 0  4 3  5 0  5 3  6 0  6 3  6 6

:CHA003: TOTAL VALENCE CHARGE INSIDE SPHERE   3 =   4.5826    (RMT=  1.4000 )
:PCS003: PARTIAL CHARGES SPHERE =  3 S,P,D,F,PZ,PXY, D-Z2,D-XY,X2Y2,D-XZ,YZ 
:QTL003: 1.3776 3.1971 0.0070 0.0008 1.0321 2.1650 0.0000 0.0015 0.0012 0.0043 0.0000 0.0000
        Q-s-low E-s-low   Q-p-low E-p-low   Q-d-low E-d-low   Q-f-low E-f-low
:EPL003:  1.3249 -0.9173    0.0049 -1.1592    0.0003 -2.4216    0.0001 -2.2856
        Q-s-hi  E-s-hi    Q-p-hi  E-p-hi    Q-d-hi  E-d-hi    Q-f-hi  E-f-hi 
:EPH003:  0.0527  0.0615    3.1922  0.1537    0.0067  0.2648    0.0007  0.3012
:VZZ003: EFG INSIDE SPHERE   3 =     3.226270      UP TO R =   1.40000

:CHA  : TOTAL VALENCE CHARGE INSIDE UNIT CELL =      38.000000

:SUM  : SUM OF EIGENVALUES =         -51.045656068


        1.ATOM      Cu1                   5 CORE STATES
:1S 001: 1S                -649.666371620 Ry
:2S 001: 2S                 -77.358160820 Ry
:2PP001: 2P*                -67.675741366 Ry
:2P 001: 2P                 -66.169424515 Ry
:3S 001: 3S                  -7.702600928 Ry

        2.ATOM      Al1                   2 CORE STATES
:1S 002: 1S                -110.153075746 Ry
:2S 002: 2S                  -7.037288349 Ry

        3.ATOM      O 1                   1 CORE STATES
       CORE-FORCE in mRy/a.u. = |F|      Fx             Fy             Fz
:FCO003:   3.ATOM      8.637146012      0.000000000      0.000000000      8.637146012

:1S 003: 1S                 -36.687392009 Ry
:CINT001 Core Integral Atom   1   11.998495
:CINT002 Core Integral Atom   2    3.996086
:CINT003 Core Integral Atom   3    1.999999

       DENSITY AT NUCLEUS
        JATOM        VALENCE       SEMI-CORE          CORE           TOTAL
:RTO001:   1        7.906228        0.000000    22630.702257    22638.608485
:RTO002:   2        2.905229        0.000000     1487.081978     1489.987207
:RTO003:   3       14.713974        0.000000      304.060820      318.774794
     
       CHARGES OF NEW CHARGE DENSITY
:NTO   : INTERSTITIAL CHARGE =     6.811519
:NTO001: CHARGE SPHERE  1    =    27.373596
:NTO002: CHARGE SPHERE  2    =    10.644213
:NTO003: CHARGE SPHERE  3    =     6.582613

:NEC01: NUCLEAR AND ELECTRONIC CHARGE     58.00000    57.99455
     
       CHARGES OF OLD CHARGE DENSITY
:OTO   : INTERSTITIAL CHARGE =     6.816966
:OTO001: CHARGE SPHERE  1    =    27.373596
:OTO002: CHARGE SPHERE  2    =    10.644213
:OTO003: CHARGE SPHERE  3    =     6.582612

:NEC02: NUCLEAR AND ELECTRONIC CHARGE     58.00000    58.00000
     
       CONVERGENCE TEST
:DTO001: DIFFERENCE IN SPHERE  1 =  0.0000015
:DTO002: DIFFERENCE IN SPHERE  2 =  0.0000008
:DTO003: DIFFERENCE IN SPHERE  3 =  0.0000020

:DIS  :  CHARGE DISTANCE       ( 0.0000020 for atom    3 spin 1)      0.0000016
:BIG check (qbig,qrms,qtot)    0.683D-06   0.118D-05   0.158D-05
 
******************************************************
* MULTISECANT MIXING VER6 RELEASE 6.0 OPTIONS        *
* Standard Mode with controls                        *
* Regularization       1.000E-06                     *
* Trust Region Control Active                        *
* Max Number of Memory Steps    8                    *
******************************************************
 
:PLANE:  INTERSTITIAL TOTAL      1.57208 DISTAN  2.074E-05 % 
:CHARG:  CLM CHARGE   /ATOM     54.22706 DISTAN  2.817E-06 % 
 
 Step History DMIX, Red, Pred, Trust, FRMS, FABS
 10  2.0000E-01  5.3217E-01  3.0504E-01  5.6375E+00
 11  2.0203E-01  2.8029E-01  1.4803E-01  5.9576E+00
 12  2.0000E-01  2.4332E-01  3.3107E-01  5.4593E+00
 13  2.0000E-01  4.2393E-01  3.4611E-01  4.7647E+00
 14  2.0000E-01  1.9510E-01  2.0775E-01  4.5205E+00
 15  2.0000E-01  6.9004E-01  9.2921E-01  4.5700E+00
 16  2.0000E-01  4.0702E-01  6.8052E-01  4.6034E+00
 17  2.0000E-01  1.0000E+00  3.9029E-01  4.7752E+00
  
:NORMS:  Nuclear, Spectral, Froebius, Shanno-Pua   0.1348E+01  0.1136E+01  0.1264E+01  0.7436E+00
:INFO :  Number of Memory Steps    8 Skipping    8
:INFO :  SLambda=    1.3478440  Max    1.3478440

Eigenvalues, unscaled except for SY+YY
   #     SY Real        SY Imag          SS             YY         SY+YY Real      SY+YY Imag
   1   2.006161E+00   0.000000E+00   2.207459E+00   2.849415E+00   5.872546E+00   0.000000E+00
   2   2.330267E+00   0.000000E+00   1.760651E+00   2.620413E+00   5.379354E+00   0.000000E+00
   3   5.244291E-01   1.212771E-02   4.716240E-01   1.232395E+00   1.919541E+00   0.000000E+00
   4   5.244291E-01  -1.212771E-02   2.819466E-01   6.766069E-01   1.427725E+00   0.000000E+00
   5   2.132929E-01   0.000000E+00   1.841685E-01   5.097678E-02   9.658411E-02   0.000000E+00
   6   1.558784E-01   0.000000E+00   8.317486E-02   6.021103E-03   1.091878E-02   0.000000E+00
   7   3.181990E-03   0.000000E+00   1.395361E-02   3.030503E-01   5.213745E-01   0.000000E+00
   8   2.865341E-02   0.000000E+00   1.148381E-03   2.611221E-01   5.709767E-01   0.000000E+00
 
:INFO :  Singular value   5.908E+00 Weight  1.0000E+00 Projections   4.778E-06 -1.385E-06
:INFO :  Singular value   5.373E+00 Weight  1.0000E+00 Projections   1.004E-06  1.053E-06
:INFO :  Singular value   1.922E+00 Weight  1.0000E+00 Projections  -2.624E-06  6.420E-07
:INFO :  Singular value   1.422E+00 Weight  1.0000E+00 Projections  -4.367E-07  1.147E-06
:INFO :  Singular value   5.710E-01 Weight  1.0000E+00 Projections   7.520E-08 -1.558E-06
:INFO :  Singular value   5.202E-01 Weight  1.0000E+00 Projections  -2.356E-05 -1.189E-06
:INFO :  Singular value   9.657E-02 Weight  1.0000E+00 Projections   3.023E-05  3.176E-06
:INFO :  Singular value   1.092E-02 Weight  1.0000E+00 Projections  -1.099E-05  4.002E-05
 
:DIRM :  MEMORY 8/8 RESCALE  16.26 RED 0.242 PRED 0.390 NEXT 0.815
:INFO :  Blimit    4.757E+00  1.186E+00  1.000E+00  4.745E+00
:DIRP :  |MSR1|= 3.722E-06 |PRATT|= 5.302E-06 ANGLE=  23.1 DEGREES
:DIRQ :  |MSR1|= 0.000E+00 |PRATT|= 0.000E+00 ANGLE=   0.0 DEGREES
:DIR  :  |MSR1|= 3.882E-06 |PRATT|= 7.008E-06 ANGLE=  33.2 DEGREES
:MIX  :   MSE1   REGULARIZATION: 2.85E-06  GREED: 0.200  Newton 1.00  0.55                
     
       CHARGES OF MIXED CHARGE DENSITY
:CTO   : INTERSTITIAL CHARGE =     6.816966
:CTO001: CHARGE SPHERE  1    =    27.373596
:CTO002: CHARGE SPHERE  2    =    10.644213
:CTO003: CHARGE SPHERE  3    =     6.582612

:NEC03: NUCLEAR AND ELECTRONIC CHARGE     58.00000    58.00000

PW CHANGE     H    K    L       Current     Change     Residue
:PTO001:      0    0    0  6.06288780E-02 -5.843E-09 -1.190E-08
:PTO002:     -1   -1   -1 -2.32815919E-02  1.862E-09  4.185E-09
:PTO003:     -2   -2   -2 -9.89574353E-03  2.603E-09  5.124E-09
:PTO004:     -1    0    0  1.01783819E-01 -1.547E-08 -2.248E-08
:PTO005:     -1   -1    0  4.49249884E-02 -7.683E-09 -6.295E-09
:PTO006:     -2   -1   -1 -7.44014650E-02  7.157E-09  1.066E-08
:PTO007:     -2   -2   -1 -7.51338300E-02  9.882E-09  7.744E-09
:PTO008:     -3   -3   -3  2.75659878E-02 -4.097E-09 -3.154E-09
:PTO009:     -3   -2   -2  1.24274593E-02 -2.033E-09 -6.225E-09
:PTO010:     -3   -3   -2  3.96501647E-02 -9.603E-09 -1.002E-08
:PTO011:     -1    0    1  2.87657977E-02 -1.085E-08 -1.234E-08
:PTO012:     -4   -4   -4 -5.62372645E-03  4.480E-10  2.613E-09

:ENE  : ********** TOTAL ENERGY IN Ry =        -4097.01625999

       TOTAL FORCE IN mRy/a.u. = |F|     Fx             Fy             Fz     with/without FOR in case.in2
:FOR001:   1.ATOM          0.000          0.000          0.000          0.000 partial forces
:FOR002:   2.ATOM          0.000          0.000          0.000          0.000 partial forces
:FOR003:   3.ATOM         10.891          0.000          0.000        -10.891 partial forces
       TOTAL FORCE WITH RESPECT TO GLOBAL CARTESIAN COORDINATES:
:FCA001:   1.ATOM                         0.000          0.000          0.000 partial forces
:FCA002:   2.ATOM                         0.000          0.000          0.000 partial forces
:FCA003:   3.ATOM                         0.000          0.000        -10.891 partial forces
       TOTAL FORCE WITH RESPECT TO THE GLOBAL COORDINATE SYSTEM:
:FGL001:   1.ATOM                 0.000000000     0.000000000     0.000000000 partial forces
:FGL002:   2.ATOM                 0.000000000     0.000000000     0.000000000 partial forces
:FGL003:   3.ATOM               -10.891475278   -10.891475278   -10.891475278 partial forces
