
:LABEL1: Calculations in /home/stevezhang/work/CuMO2/convergence/CuInO2/rkmax_7-scfk_6c/CuInO2
:LABEL2: on MZ at Tue Jun 22 14:42:42 CST 2021
:LABEL3: using WIEN2k_14.2 (Release 15/10/2014) in /home/stevezhang/wien2k/v14.2
:LABEL4: using the command: run_lapw -ec 0.000000001


            ---------
:ITE001:  1. ITERATION
            ---------

:NATO :    3 INDEPENDENT AND    4 TOTAL ATOMS IN UNITCELL
       SUBSTANCE: CuInO2 ShimodeM00                                           

       LATTICE                      = R   
:POT  : POTENTIAL OPTION EX_PBE EC_PBE VX_PBE VC_PBE
:LAT  : LATTICE CONSTANTS=  6.22095  6.22095 32.85838
:VOL  : UNIT CELL VOLUME =     367.08653
       MODE OF CALCULATION IS       = RELA
       NON-SPINPOLARIZED CALCULATION
:IFFT  : FFT-parameters:   90   90   90 Factor: 2.00
       ATOMNUMBER=  1 Cu1        VCOUL-ZERO =  0.26650E+00
:EFG001:                        EFG         =     0.18098   *10**21  V / m**2
                               V20  TOT/SRF=     0.15673     0.41493
                               V22  TOT/SRF=     0.00000     0.00000
                               V22M TOT/SRF=     0.00000     0.00000
                               V21  TOT/SRF=     0.00000     0.00000
                               V21M TOT/SRF=     0.00000     0.00000

             -0.09049    0.00000    0.00000       -0.09049    0.00000    0.00000
              0.00000   -0.09049    0.00000        0.00000   -0.09049    0.00000
              0.00000    0.00000    0.18098        0.00000    0.00000    0.18098

         MAIN DIRECTIONS OF THE EFG   1.0000  0.0000  0.0000
                                      0.0000  1.0000  0.0000
                                      0.0000  0.0000  1.0000
:ANG001:  ANGLE WITH OLD X-AXIS =         0.0

:ETA001:                         ASYMM. ETA =     0.00000


       ATOMNUMBER=  2 In1        VCOUL-ZERO =  0.90644E-01
:EFG002:                        EFG         =    -0.05295   *10**21  V / m**2
                               V20  TOT/SRF=    -0.04585    -0.08417
                               V22  TOT/SRF=     0.00000     0.00000
                               V22M TOT/SRF=     0.00000     0.00000
                               V21  TOT/SRF=     0.00000     0.00000
                               V21M TOT/SRF=     0.00000     0.00000

              0.02647    0.00000    0.00000        0.02647    0.00000    0.00000
              0.00000    0.02647    0.00000        0.00000    0.02647    0.00000
              0.00000    0.00000   -0.05295        0.00000    0.00000   -0.05295

         MAIN DIRECTIONS OF THE EFG   1.0000  0.0000  0.0000
                                      0.0000  1.0000  0.0000
                                      0.0000  0.0000  1.0000
:ANG002:  ANGLE WITH OLD X-AXIS =         0.0

:ETA002:                         ASYMM. ETA =     0.00000


       ATOMNUMBER=  3 O 1        VCOUL-ZERO = -0.17415E-01
:EFG003:                        EFG         =     0.36340   *10**21  V / m**2
                               V20  TOT/SRF=     0.31472     0.39261
                               V22  TOT/SRF=     0.00000     0.00000
                               V22M TOT/SRF=     0.00000     0.00000
                               V21  TOT/SRF=     0.00000     0.00000
                               V21M TOT/SRF=     0.00000     0.00000

             -0.18170    0.00000    0.00000       -0.18170    0.00000    0.00000
              0.00000   -0.18170    0.00000        0.00000   -0.18170    0.00000
              0.00000    0.00000    0.36340        0.00000    0.00000    0.36340

         MAIN DIRECTIONS OF THE EFG   1.0000  0.0000  0.0000
                                      0.0000  1.0000  0.0000
                                      0.0000  0.0000  1.0000
:ANG003:  ANGLE WITH OLD X-AXIS =         0.0

:ETA003:                         ASYMM. ETA =     0.00000


     HELLMANN-FEYNMAN-FORCE IN mRy/a.u. = |F|  Fx       Fy             Fz
:FHF001:   1.ATOM      0.000000000      0.000000000      0.000000000      0.000000000

     HELLMANN-FEYNMAN-FORCE IN mRy/a.u. = |F|  Fx       Fy             Fz
:FHF002:   2.ATOM      0.000000000      0.000000000      0.000000000      0.000000000

     HELLMANN-FEYNMAN-FORCE IN mRy/a.u. = |F|  Fx       Fy             Fz
:FHF003:   3.ATOM     11.658015058      0.000000000      0.000000000    -11.658015058

:FIT001: LUSE= 13 SIGMA OF V-XC FIT FOR ATOM  1  0.8226974E-02
:FIT001: LUSE= 13 SIGMA OF V-XC FIT FOR ATOM  1  0.8226974E-02
:FIT002: LUSE= 13 SIGMA OF V-XC FIT FOR ATOM  2  0.7461558E-02
:FIT002: LUSE= 13 SIGMA OF V-XC FIT FOR ATOM  2  0.7461558E-02
:FIT003: LUSE= 13 SIGMA OF V-XC FIT FOR ATOM  3  0.1113757E-03
:FIT003: LUSE= 13 SIGMA OF V-XC FIT FOR ATOM  3  0.1113757E-03
:DEN  : DENSITY INTEGRAL  =         -6248.76369556   (Ry)
       ELS_POTENTIAL_AT Z=0 and Z=0.5:   0.00000   0.00000
       ELS_POTENTIAL_AT Y=0 and Y=0.5:   0.00000   0.00000
:VZERO:v0,v0c,v0x  -0.77412   0.00000  -0.77412 v5,v5c,v5x  -0.77412   0.00000  -0.77412
:VZERY:v0,v0c,v0x  -0.77412   0.00000  -0.77412 v5,v5c,v5x  -0.77412   0.00000  -0.77412
:VZERX:v0,v0c,v0x  -1.86929  -0.81400  -1.05529 v5,v5c,v5x  -0.89868  -0.36295  -0.53573

          ATOMIC SPHERE DEPENDENT PARAMETERS FOR ATOM  Cu1       
:e__0001: OVERALL ENERGY PARAMETER IS    0.3000
          OVERALL BASIS SET ON ATOM IS LAPW
:E1_0001: E( 1)=    0.3000
             APW+lo
:E1_0001: E( 1)=   -4.8037   E(BOTTOM)=   -4.869   E(TOP)=   -4.739  1  2   154
             LOCAL ORBITAL
:E2_0001: E( 2)=    0.1346   E(BOTTOM)=   -0.183   E(TOP)=    0.452  0  1   135
             APW+lo
:E0_0001: E( 0)=    0.3000
             APW+lo

          ATOMIC SPHERE DEPENDENT PARAMETERS FOR ATOM  In1       
:e__0002: OVERALL ENERGY PARAMETER IS    0.3000
          OVERALL BASIS SET ON ATOM IS LAPW
:E2_0002: E( 2)=   -0.5238   E(BOTTOM)=   -0.941   E(TOP)=   -0.107  1  2   147
             APW+lo
:E2_0002: E( 2)=    0.7000
             LOCAL ORBITAL
:E0_0002: E( 0)=    0.3000
             APW+lo
:E1_0002: E( 1)=    0.3000
             APW+lo

          ATOMIC SPHERE DEPENDENT PARAMETERS FOR ATOM  O 1       
:e__0003: OVERALL ENERGY PARAMETER IS    0.3000
          OVERALL BASIS SET ON ATOM IS LAPW
:E0_0003: E( 0)=   -1.5500   E(BOTTOM)=   -2.839   E(TOP)= -200.000  1 -1   242
             APW+lo
:E0_0003: E( 0)=    0.7000
             LOCAL ORBITAL
:E1_0003: E( 1)=    0.3000
             APW+lo

       K=   0.00000   0.00000   0.00000            1
:RKM  : MATRIX SIZE   809LOs:  36  RKM= 6.98  WEIGHT= 1.00  PGR:    
       EIGENVALUES ARE:
:EIG00001:      -4.7975265   -4.7858128   -4.7858128   -1.1712993   -1.0969929
:EIG00006:      -0.5348809   -0.5348809   -0.5143720   -0.4796522   -0.4796522
:EIG00011:      -0.1962099   -0.0084937    0.0358473    0.0358473    0.0573075
:EIG00016:       0.0573075    0.1494321    0.1834757    0.1834757    0.2343398
:EIG00021:       0.2343398    0.3736700    0.7085437    0.7226411    1.2537236
:EIG00026:       1.2537236    1.2891233    1.4658492    1.4658492    1.5323762
:EIG00031:       1.5380144    1.5380144    1.5396687    1.7183935    1.8391391
:EIG00036:       1.8391391    1.9491657
       ********************************************************

:KPT   :      NUMBER OF K-POINTS:    32
       Insulator, EF-inconsistency corrected
:GAP  :    0.0945 Ry =     1.285 eV   (provided you have a proper k-mesh)
         Bandranges (emin - emax) and occupancy:
:BAN00011:  11   -0.199045   -0.119097  2.00000000
:BAN00012:  12   -0.153913   -0.008494  2.00000000
:BAN00013:  13   -0.091291    0.035847  2.00000000
:BAN00014:  14   -0.054565    0.035847  2.00000000
:BAN00015:  15   -0.026709    0.099005  2.00000000
:BAN00016:  16    0.042552    0.099587  2.00000000
:BAN00017:  17    0.142916    0.188463  2.00000000
:BAN00018:  18    0.183365    0.204691  2.00000000
:BAN00019:  19    0.183365    0.213056  2.00000000
:BAN00020:  20    0.208224    0.237646  2.00000000
:BAN00021:  21    0.220870    0.279162  2.00000000
:BAN00022:  22    0.373670    0.746016  0.00000000
:BAN00023:  23    0.554040    0.746664  0.00000000
:BAN00024:  24    0.722231    0.979777  0.00000000
:BAN00025:  25    0.862313    1.253724  0.00000000
:BAN00026:  26    0.995200    1.253724  0.00000000
        Energy to separate low and high energystates:   -0.24904


:NOE  : NUMBER OF ELECTRONS          =  42.000

:FER  : F E R M I - ENERGY(TETRAH.M.)=   0.2791620572
:GMA  : POTENTIAL AND CHARGE CUT-OFF  12.00 Ry**.5




:POS001: ATOM   -1 X,Y,Z = 0.00000 0.00000 0.00000  MULT= 1  ZZ= 29.000  Cu1       

       LMMAX  7
       LM=   0 0  2 0  4 0  4 3  6 0  6 3  6 6

:CHA001: TOTAL VALENCE CHARGE INSIDE SPHERE   1 =  15.5970    (RMT=  2.0000 )
:PCS001: PARTIAL CHARGES SPHERE =  1 S,P,D,F,PZ,PXY, D-Z2,D-XY,X2Y2,D-XZ,YZ 
:QTL001: 0.2283 6.1257 9.2154 0.0202 2.1083 4.0174 0.0000 1.7170 3.7253 3.7731 0.0000 0.0000
        Q-s-low E-s-low   Q-p-low E-p-low   Q-d-low E-d-low   Q-f-low E-f-low
:EPL001:  0.0252 -0.9642    6.0108 -4.7729    0.0381 -0.9083    0.0045 -1.0141
        Q-s-hi  E-s-hi    Q-p-hi  E-p-hi    Q-d-hi  E-d-hi    Q-f-hi  E-f-hi 
:EPH001:  0.2030  0.0802    0.1149 -0.0192    9.1773  0.1807    0.0157 -0.0208
:VZZ001: EFG INSIDE SPHERE   1 =    -8.602809      UP TO R =   2.00000




:POS002: ATOM   -2 X,Y,Z = 0.50000 0.50000 0.50000  MULT= 1  ZZ= 49.000  In1       

       LMMAX  7
       LM=   0 0  2 0  4 0  4 3  6 0  6 3  6 6

:CHA002: TOTAL VALENCE CHARGE INSIDE SPHERE   2 =   9.9760    (RMT=  2.1300 )
:PCS002: PARTIAL CHARGES SPHERE =  2 S,P,D,F,PZ,PXY, D-Z2,D-XY,X2Y2,D-XZ,YZ 
:QTL002: 0.2333 0.1856 9.5217 0.0285 0.0514 0.1342 0.0000 1.8891 3.8107 3.8220 0.0000 0.0000
        Q-s-low E-s-low   Q-p-low E-p-low   Q-d-low E-d-low   Q-f-low E-f-low
:EPL002:  0.0233 -1.0355    0.0234 -1.0269    8.9338 -0.4979    0.0039 -1.0521
        Q-s-hi  E-s-hi    Q-p-hi  E-p-hi    Q-d-hi  E-d-hi    Q-f-hi  E-f-hi 
:EPH002:  0.2100 -0.1236    0.1622 -0.0383    0.5880 -0.0096    0.0246 -0.0056
:VZZ002: EFG INSIDE SPHERE   2 =     6.987502      UP TO R =   2.13000




:POS003: ATOM   -3 X,Y,Z = 0.10553 0.10553 0.10553  MULT= 2  ZZ=  8.000  O 1       

       LMMAX 12
       LM=   0 0  1 0  2 0  3 0  3 3  4 0  4 3  5 0  5 3  6 0  6 3  6 6

:CHA003: TOTAL VALENCE CHARGE INSIDE SPHERE   3 =   4.9372    (RMT=  1.4000 )
:PCS003: PARTIAL CHARGES SPHERE =  3 S,P,D,F,PZ,PXY, D-Z2,D-XY,X2Y2,D-XZ,YZ 
:QTL003: 1.4377 3.4920 0.0063 0.0010 1.1390 2.3529 0.0000 0.0017 0.0013 0.0033 0.0000 0.0000
        Q-s-low E-s-low   Q-p-low E-p-low   Q-d-low E-d-low   Q-f-low E-f-low
:EPL003:  1.4070 -1.1089    0.1202 -0.5097    0.0020 -0.6525    0.0003 -0.8318
        Q-s-hi  E-s-hi    Q-p-hi  E-p-hi    Q-d-hi  E-d-hi    Q-f-hi  E-f-hi 
:EPH003:  0.0307 -0.0344    3.3717 -0.0142    0.0043  0.1159    0.0007  0.1265
:VZZ003: EFG INSIDE SPHERE   3 =     2.877588      UP TO R =   1.40000

:CHA  : TOTAL VALENCE CHARGE INSIDE UNIT CELL =      42.000000

:SUM  : SUM OF EIGENVALUES =         -36.628894649


        1.ATOM      Cu1                   5 CORE STATES
:1S 001: 1S                -649.863894024 Ry
:2S 001: 2S                 -77.588133274 Ry
:2PP001: 2P*                -67.902326774 Ry
:2P 001: 2P                 -66.396398561 Ry
:3S 001: 3S                  -7.925907074 Ry

        2.ATOM      In1                  12 CORE STATES
:1S 002: 1S               -2037.703652112 Ry
:2S 002: 2S                -304.240909028 Ry
:2PP002: 2P*               -283.650479399 Ry
:2P 002: 2P                -268.151320262 Ry
:3S 002: 3S                 -56.998171753 Ry
:3PP002: 3P*                -48.691055280 Ry
:3P 002: 3P                 -45.891549236 Ry
:3DD002: 3D*                -31.204560142 Ry
:3D 002: 3D                 -30.631038324 Ry
:4S 002: 4S                  -7.886051771 Ry
:4PP002: 4P*                 -5.176286170 Ry
:4P 002: 4P                  -4.688900010 Ry

        3.ATOM      O 1                   1 CORE STATES
       CORE-FORCE in mRy/a.u. = |F|      Fx             Fy             Fz
:FCO003:   3.ATOM      2.154952296      0.000000000      0.000000000      2.154952296

:1S 003: 1S                 -37.051737628 Ry
:CINT001 Core Integral Atom   1   11.998569
:CINT002 Core Integral Atom   2   35.973591
:CINT003 Core Integral Atom   3    1.999999

       DENSITY AT NUCLEUS
        JATOM        VALENCE       SEMI-CORE          CORE           TOTAL
:RTO001:   1        6.448591        0.000000    22630.879190    22637.327782
:RTO002:   2       25.318873        0.000000   236274.441161   236299.760034
:RTO003:   3       15.872979        0.000000      303.985750      319.858729
     
       CHARGES OF NEW CHARGE DENSITY
:NTO   : INTERSTITIAL CHARGE =     6.552549
:NTO001: CHARGE SPHERE  1    =    27.595532
:NTO002: CHARGE SPHERE  2    =    45.949617
:NTO003: CHARGE SPHERE  3    =     6.937215

:NEC01: NUCLEAR AND ELECTRONIC CHARGE     94.00000    93.97213
     
       CHARGES OF OLD CHARGE DENSITY
:OTO   : INTERSTITIAL CHARGE =     7.702451
:OTO001: CHARGE SPHERE  1    =    27.242587
:OTO002: CHARGE SPHERE  2    =    46.476123
:OTO003: CHARGE SPHERE  3    =     6.290331

:NEC02: NUCLEAR AND ELECTRONIC CHARGE     94.00000    94.00182
     
       CONVERGENCE TEST
:DTO001: DIFFERENCE IN SPHERE  1 =  0.8208105
:DTO002: DIFFERENCE IN SPHERE  2 =  0.3471237
:DTO003: DIFFERENCE IN SPHERE  3 =  0.8202914

:DIS  :  CHARGE DISTANCE       ( 0.8208105 for atom    1 spin 1)      0.7021293
:BIG check (qbig,qrms,qtot)    0.274D+00   0.517D+00   0.702D+00
 
******************************************************
* MULTISECANT MIXING VER6 RELEASE 6.0 OPTIONS        *
* Standard Mode with controls                        *
* Regularization       1.000E-06                     *
* Trust Region Control Active                        *
* Max Number of Memory Steps    8                    *
******************************************************
 
:PLANE:  INTERSTITIAL TOTAL      1.90138 DISTAN  3.254E+01 % 
:CHARG:  CLM CHARGE   /ATOM    107.20616 DISTAN  9.702E-01 % 
:REDuction and DMIX in Broyd:    0.7455    0.1491
:DIRM :  MEMORY  0/ 8 RESCALES   1.00
:MIX  :   PRATT  REGULARIZATION: 1.00E-06  GREED: 0.035
     
       CHARGES OF MIXED CHARGE DENSITY
:CTO   : INTERSTITIAL CHARGE =     7.661421
:CTO001: CHARGE SPHERE  1    =    27.254940
:CTO002: CHARGE SPHERE  2    =    46.457695
:CTO003: CHARGE SPHERE  3    =     6.312972

:NEC03: NUCLEAR AND ELECTRONIC CHARGE     94.00000    94.00000

PW CHANGE     H    K    L       Current     Change     Residue
:PTO001:      0    0    0  6.17252692E-02 -2.698E-04 -7.709E-03
:PTO002:     -1   -1   -1 -3.02465987E-02  1.347E-04  3.848E-03
:PTO003:     -2   -2   -2  7.23044472E-03 -5.100E-04 -1.457E-02
:PTO004:     -1    0    0  5.81508379E-02  1.084E-03  3.097E-02
:PTO005:     -1   -1    0  1.01033089E-01 -8.382E-04 -2.395E-02
:PTO006:     -2   -1   -1 -8.56206701E-03 -1.421E-03 -4.060E-02
:PTO007:     -2   -2   -1 -8.16780634E-02 -1.956E-04 -5.588E-03
:PTO008:     -3   -3   -3  1.60321614E-02  2.493E-04  7.121E-03
:PTO009:     -3   -2   -2 -1.03679376E-02  2.803E-04  8.008E-03
:PTO010:     -3   -3   -2  5.18398761E-02 -3.188E-04 -9.109E-03
:PTO011:     -1    0    1  6.28050816E-02 -2.428E-04 -6.936E-03
:PTO012:     -2   -1    0 -3.64323734E-02  1.240E-04  3.543E-03

:ENE  : ********** TOTAL ENERGY IN Ry =       -15377.97041683

       TOTAL FORCE IN mRy/a.u. = |F|     Fx             Fy             Fz     with/without FOR in case.in2
:FOR001:   1.ATOM          0.000          0.000          0.000          0.000 partial forces
:FOR002:   2.ATOM          0.000          0.000          0.000          0.000 partial forces
:FOR003:   3.ATOM          9.503          0.000          0.000         -9.503 partial forces
       TOTAL FORCE WITH RESPECT TO GLOBAL CARTESIAN COORDINATES:
:FCA001:   1.ATOM                         0.000          0.000          0.000 partial forces
:FCA002:   2.ATOM                         0.000          0.000          0.000 partial forces
:FCA003:   3.ATOM                         0.000          0.000         -9.503 partial forces
       TOTAL FORCE WITH RESPECT TO THE GLOBAL COORDINATE SYSTEM:
:FGL001:   1.ATOM                 0.000000000     0.000000000     0.000000000 partial forces
:FGL002:   2.ATOM                 0.000000000     0.000000000     0.000000000 partial forces
:FGL003:   3.ATOM                -9.503062762    -9.503062762    -9.503062762 partial forces


            ---------
:ITE002:  2. ITERATION
            ---------

:NATO :    3 INDEPENDENT AND    4 TOTAL ATOMS IN UNITCELL
       SUBSTANCE: CuInO2 ShimodeM00                                           

       LATTICE                      = R   
:POT  : POTENTIAL OPTION EX_PBE EC_PBE VX_PBE VC_PBE
:LAT  : LATTICE CONSTANTS=  6.22095  6.22095 32.85838
:VOL  : UNIT CELL VOLUME =     367.08653
       MODE OF CALCULATION IS       = RELA
       NON-SPINPOLARIZED CALCULATION
:IFFT  : FFT-parameters:   90   90   90 Factor: 2.00
       ATOMNUMBER=  1 Cu1        VCOUL-ZERO =  0.26943E+00
:EFG001:                        EFG         =    -0.12776   *10**21  V / m**2
                               V20  TOT/SRF=    -0.11064     0.39452
                               V22  TOT/SRF=     0.00000     0.00000
                               V22M TOT/SRF=     0.00000     0.00000
                               V21  TOT/SRF=     0.00000     0.00000
                               V21M TOT/SRF=     0.00000     0.00000

              0.06388    0.00000    0.00000        0.06388    0.00000    0.00000
              0.00000    0.06388    0.00000        0.00000    0.06388    0.00000
              0.00000    0.00000   -0.12776        0.00000    0.00000   -0.12776

         MAIN DIRECTIONS OF THE EFG   1.0000  0.0000  0.0000
                                      0.0000  1.0000  0.0000
                                      0.0000  0.0000  1.0000
:ANG001:  ANGLE WITH OLD X-AXIS =         0.0

:ETA001:                         ASYMM. ETA =     0.00000


       ATOMNUMBER=  2 In1        VCOUL-ZERO =  0.83439E-01
:EFG002:                        EFG         =     0.19322   *10**21  V / m**2
                               V20  TOT/SRF=     0.16733    -0.08036
                               V22  TOT/SRF=     0.00000     0.00000
                               V22M TOT/SRF=     0.00000     0.00000
                               V21  TOT/SRF=     0.00000     0.00000
                               V21M TOT/SRF=     0.00000     0.00000

             -0.09661    0.00000    0.00000       -0.09661    0.00000    0.00000
              0.00000   -0.09661    0.00000        0.00000   -0.09661    0.00000
              0.00000    0.00000    0.19322        0.00000    0.00000    0.19322

         MAIN DIRECTIONS OF THE EFG   1.0000  0.0000  0.0000
                                      0.0000  1.0000  0.0000
                                      0.0000  0.0000  1.0000
:ANG002:  ANGLE WITH OLD X-AXIS =         0.0

:ETA002:                         ASYMM. ETA =     0.00000


       ATOMNUMBER=  3 O 1        VCOUL-ZERO = -0.40195E-02
:EFG003:                        EFG         =     0.46071   *10**21  V / m**2
                               V20  TOT/SRF=     0.39899     0.38607
                               V22  TOT/SRF=     0.00000     0.00000
                               V22M TOT/SRF=     0.00000     0.00000
                               V21  TOT/SRF=     0.00000     0.00000
                               V21M TOT/SRF=     0.00000     0.00000

             -0.23036    0.00000    0.00000       -0.23036    0.00000    0.00000
              0.00000   -0.23036    0.00000        0.00000   -0.23036    0.00000
              0.00000    0.00000    0.46071        0.00000    0.00000    0.46071

         MAIN DIRECTIONS OF THE EFG   1.0000  0.0000  0.0000
                                      0.0000  1.0000  0.0000
                                      0.0000  0.0000  1.0000
:ANG003:  ANGLE WITH OLD X-AXIS =         0.0

:ETA003:                         ASYMM. ETA =     0.00000


     HELLMANN-FEYNMAN-FORCE IN mRy/a.u. = |F|  Fx       Fy             Fz
:FHF001:   1.ATOM      0.000000000      0.000000000      0.000000000      0.000000000

     HELLMANN-FEYNMAN-FORCE IN mRy/a.u. = |F|  Fx       Fy             Fz
:FHF002:   2.ATOM      0.000000000      0.000000000      0.000000000      0.000000000

     HELLMANN-FEYNMAN-FORCE IN mRy/a.u. = |F|  Fx       Fy             Fz
:FHF003:   3.ATOM     25.974549406      0.000000000      0.000000000    -25.974549406

:FIT001: LUSE= 13 SIGMA OF V-XC FIT FOR ATOM  1  0.8166335E-02
:FIT001: LUSE= 13 SIGMA OF V-XC FIT FOR ATOM  1  0.8166335E-02
:FIT002: LUSE= 13 SIGMA OF V-XC FIT FOR ATOM  2  0.7662163E-02
:FIT002: LUSE= 13 SIGMA OF V-XC FIT FOR ATOM  2  0.7662163E-02
:FIT003: LUSE= 13 SIGMA OF V-XC FIT FOR ATOM  3  0.1091783E-03
:FIT003: LUSE= 13 SIGMA OF V-XC FIT FOR ATOM  3  0.1091783E-03
:DEN  : DENSITY INTEGRAL  =         -6249.28443024   (Ry)
       ELS_POTENTIAL_AT Z=0 and Z=0.5:   0.00000   0.00000
       ELS_POTENTIAL_AT Y=0 and Y=0.5:   0.00000   0.00000
:VZERO:v0,v0c,v0x  -0.77203   0.00000  -0.77203 v5,v5c,v5x  -0.77203   0.00000  -0.77203
:VZERY:v0,v0c,v0x  -0.77203   0.00000  -0.77203 v5,v5c,v5x  -0.77203   0.00000  -0.77203
:VZERX:v0,v0c,v0x  -1.85124  -0.79561  -1.05564 v5,v5c,v5x  -0.90609  -0.37647  -0.52962

          ATOMIC SPHERE DEPENDENT PARAMETERS FOR ATOM  Cu1       
:e__0001: OVERALL ENERGY PARAMETER IS    0.1000
          OVERALL BASIS SET ON ATOM IS LAPW
:E1_0001: E( 1)=    0.1000
             APW+lo
:E1_0001: E( 1)=   -4.7787   E(BOTTOM)=   -4.844   E(TOP)=   -4.713  1  2   156
             LOCAL ORBITAL
:E2_0001: E( 2)=    0.1564   E(BOTTOM)=   -0.164   E(TOP)=    0.477  0  1   129
             APW+lo
:E0_0001: E( 0)=    0.1000
             APW+lo

          ATOMIC SPHERE DEPENDENT PARAMETERS FOR ATOM  In1       
:e__0002: OVERALL ENERGY PARAMETER IS    0.1000
          OVERALL BASIS SET ON ATOM IS LAPW
:E2_0002: E( 2)=   -0.5355   E(BOTTOM)=   -0.951   E(TOP)=   -0.119  1  2   145
             APW+lo
:E2_0002: E( 2)=    0.5000
             LOCAL ORBITAL
:E0_0002: E( 0)=    0.1000
             APW+lo
:E1_0002: E( 1)=    0.1000
             APW+lo

          ATOMIC SPHERE DEPENDENT PARAMETERS FOR ATOM  O 1       
:e__0003: OVERALL ENERGY PARAMETER IS    0.1000
          OVERALL BASIS SET ON ATOM IS LAPW
:E0_0003: E( 0)=   -1.5500   E(BOTTOM)=   -2.818   E(TOP)= -200.000  1 -1   244
             APW+lo
:E0_0003: E( 0)=    0.5000
             LOCAL ORBITAL
:E1_0003: E( 1)=    0.1000
             APW+lo

       K=   0.00000   0.00000   0.00000            1
:RKM  : MATRIX SIZE   809LOs:  36  RKM= 6.98  WEIGHT= 1.00  PGR:    
       EIGENVALUES ARE:
:EIG00001:      -4.7718534   -4.7609099   -4.7609099   -1.1548458   -1.0784499
:EIG00006:      -0.5435183   -0.5435183   -0.5231843   -0.4910236   -0.4910236
:EIG00011:      -0.1844065    0.0098156    0.0536900    0.0536900    0.0738721
:EIG00016:       0.0738721    0.1610965    0.2040028    0.2040028    0.2556092
:EIG00021:       0.2556092    0.3827240    0.7096118    0.7331125    1.2511205
:EIG00026:       1.2511205    1.2907891    1.4712450    1.4712450    1.5338492
:EIG00031:       1.5379553    1.5386844    1.5386844    1.7162542
       ********************************************************

:KPT   :      NUMBER OF K-POINTS:    32
       Insulator, EF-inconsistency corrected
:GAP  :    0.0830 Ry =     1.129 eV   (provided you have a proper k-mesh)
         Bandranges (emin - emax) and occupancy:
:BAN00011:  11   -0.186106   -0.107086  2.00000000
:BAN00012:  12   -0.143623    0.009816  2.00000000
:BAN00013:  13   -0.077397    0.053690  2.00000000
:BAN00014:  14   -0.039042    0.053690  2.00000000
:BAN00015:  15   -0.010120    0.114702  2.00000000
:BAN00016:  16    0.058914    0.115756  2.00000000
:BAN00017:  17    0.155227    0.208869  2.00000000
:BAN00018:  18    0.203886    0.226123  2.00000000
:BAN00019:  19    0.203886    0.234484  2.00000000
:BAN00020:  20    0.229850    0.259135  2.00000000
:BAN00021:  21    0.242287    0.299710  2.00000000
:BAN00022:  22    0.382724    0.750462  0.00000000
:BAN00023:  23    0.569623    0.751395  0.00000000
:BAN00024:  24    0.726829    0.981356  0.00000000
:BAN00025:  25    0.870926    1.251120  0.00000000
:BAN00026:  26    0.999867    1.251120  0.00000000
        Energy to separate low and high energystates:   -0.23611


:NOE  : NUMBER OF ELECTRONS          =  42.000

:FER  : F E R M I - ENERGY(TETRAH.M.)=   0.2997097812
:GMA  : POTENTIAL AND CHARGE CUT-OFF  12.00 Ry**.5




:POS001: ATOM   -1 X,Y,Z = 0.00000 0.00000 0.00000  MULT= 1  ZZ= 29.000  Cu1       

       LMMAX  7
       LM=   0 0  2 0  4 0  4 3  6 0  6 3  6 6

:CHA001: TOTAL VALENCE CHARGE INSIDE SPHERE   1 =  15.5653    (RMT=  2.0000 )
:PCS001: PARTIAL CHARGES SPHERE =  1 S,P,D,F,PZ,PXY, D-Z2,D-XY,X2Y2,D-XZ,YZ 
:QTL001: 0.2357 6.1279 9.1742 0.0201 2.1093 4.0186 0.0000 1.6931 3.7149 3.7662 0.0000 0.0000
        Q-s-low E-s-low   Q-p-low E-p-low   Q-d-low E-d-low   Q-f-low E-f-low
:EPL001:  0.0249 -0.9618    6.0104 -4.7480    0.0363 -0.9154    0.0044 -1.0045
        Q-s-hi  E-s-hi    Q-p-hi  E-p-hi    Q-d-hi  E-d-hi    Q-f-hi  E-f-hi 
:EPH001:  0.2108  0.0966    0.1175 -0.0020    9.1379  0.2014    0.0158 -0.0045
:VZZ001: EFG INSIDE SPHERE   1 =    -8.048319      UP TO R =   2.00000




:POS002: ATOM   -2 X,Y,Z = 0.50000 0.50000 0.50000  MULT= 1  ZZ= 49.000  In1       

       LMMAX  7
       LM=   0 0  2 0  4 0  4 3  6 0  6 3  6 6

:CHA002: TOTAL VALENCE CHARGE INSIDE SPHERE   2 =  10.0006    (RMT=  2.1300 )
:PCS002: PARTIAL CHARGES SPHERE =  2 S,P,D,F,PZ,PXY, D-Z2,D-XY,X2Y2,D-XZ,YZ 
:QTL002: 0.2441 0.1928 9.5278 0.0290 0.0537 0.1392 0.0000 1.8902 3.8132 3.8244 0.0000 0.0000
        Q-s-low E-s-low   Q-p-low E-p-low   Q-d-low E-d-low   Q-f-low E-f-low
:EPL002:  0.0237 -1.0365    0.0239 -1.0195    8.9866 -0.5080    0.0039 -1.0393
        Q-s-hi  E-s-hi    Q-p-hi  E-p-hi    Q-d-hi  E-d-hi    Q-f-hi  E-f-hi 
:EPH002:  0.2204 -0.1118    0.1690 -0.0229    0.5412  0.0070    0.0251  0.0108
:VZZ002: EFG INSIDE SPHERE   2 =     7.183513      UP TO R =   2.13000




:POS003: ATOM   -3 X,Y,Z = 0.10553 0.10553 0.10553  MULT= 2  ZZ=  8.000  O 1       

       LMMAX 12
       LM=   0 0  1 0  2 0  3 0  3 3  4 0  4 3  5 0  5 3  6 0  6 3  6 6

:CHA003: TOTAL VALENCE CHARGE INSIDE SPHERE   3 =   4.8909    (RMT=  1.4000 )
:PCS003: PARTIAL CHARGES SPHERE =  3 S,P,D,F,PZ,PXY, D-Z2,D-XY,X2Y2,D-XZ,YZ 
:QTL003: 1.4331 3.4503 0.0064 0.0010 1.1261 2.3241 0.0000 0.0017 0.0013 0.0034 0.0000 0.0000
        Q-s-low E-s-low   Q-p-low E-p-low   Q-d-low E-d-low   Q-f-low E-f-low
:EPL003:  1.4013 -1.0905    0.1070 -0.5196    0.0020 -0.6622    0.0003 -0.8408
        Q-s-hi  E-s-hi    Q-p-hi  E-p-hi    Q-d-hi  E-d-hi    Q-f-hi  E-f-hi 
:EPH003:  0.0318 -0.0231    3.3433  0.0011    0.0044  0.1362    0.0007  0.1476
:VZZ003: EFG INSIDE SPHERE   3 =     2.748048      UP TO R =   1.40000

:CHA  : TOTAL VALENCE CHARGE INSIDE UNIT CELL =      42.000000

:SUM  : SUM OF EIGENVALUES =         -36.123315950


        1.ATOM      Cu1                   5 CORE STATES
:1S 001: 1S                -649.825225374 Ry
:2S 001: 2S                 -77.549913177 Ry
:2PP001: 2P*                -67.863796203 Ry
:2P 001: 2P                 -66.357902132 Ry
:3S 001: 3S                  -7.899857398 Ry

        2.ATOM      In1                  12 CORE STATES
:1S 002: 1S               -2037.720647360 Ry
:2S 002: 2S                -304.257013649 Ry
:2PP002: 2P*               -283.666720542 Ry
:2P 002: 2P                -268.167522241 Ry
:3S 002: 3S                 -57.013175711 Ry
:3PP002: 3P*                -48.706101106 Ry
:3P 002: 3P                 -45.906546138 Ry
:3DD002: 3D*                -31.219668782 Ry
:3D 002: 3D                 -30.646130923 Ry
:4S 002: 4S                  -7.899080850 Ry
:4PP002: 4P*                 -5.189093553 Ry
:4P 002: 4P                  -4.701581286 Ry

        3.ATOM      O 1                   1 CORE STATES
       CORE-FORCE in mRy/a.u. = |F|      Fx             Fy             Fz
:FCO003:   3.ATOM      3.620933827      0.000000000      0.000000000      3.620933827

:1S 003: 1S                 -37.010641191 Ry
:CINT001 Core Integral Atom   1   11.998555
:CINT002 Core Integral Atom   2   35.973687
:CINT003 Core Integral Atom   3    1.999999

       DENSITY AT NUCLEUS
        JATOM        VALENCE       SEMI-CORE          CORE           TOTAL
:RTO001:   1        6.692314        0.000000    22630.558259    22637.250574
:RTO002:   2       26.690675        0.000000   236274.732475   236301.423150
:RTO003:   3       15.777649        0.000000      303.969267      319.746916
     
       CHARGES OF NEW CHARGE DENSITY
:NTO   : INTERSTITIAL CHARGE =     6.652292
:NTO001: CHARGE SPHERE  1    =    27.563849
:NTO002: CHARGE SPHERE  2    =    45.974259
:NTO003: CHARGE SPHERE  3    =     6.890906

:NEC01: NUCLEAR AND ELECTRONIC CHARGE     94.00000    93.97221
     
       CHARGES OF OLD CHARGE DENSITY
:OTO   : INTERSTITIAL CHARGE =     7.661421
:OTO001: CHARGE SPHERE  1    =    27.254940
:OTO002: CHARGE SPHERE  2    =    46.457695
:OTO003: CHARGE SPHERE  3    =     6.312972

:NEC02: NUCLEAR AND ELECTRONIC CHARGE     94.00000    94.00000
     
       CONVERGENCE TEST
:DTO001: DIFFERENCE IN SPHERE  1 =  0.6775867
:DTO002: DIFFERENCE IN SPHERE  2 =  0.3206053
:DTO003: DIFFERENCE IN SPHERE  3 =  0.7250592

:DIS  :  CHARGE DISTANCE       ( 0.7250592 for atom    3 spin 1)      0.6120776
:BIG check (qbig,qrms,qtot)    0.242D+00   0.449D+00   0.612D+00
 
******************************************************
* MULTISECANT MIXING VER6 RELEASE 6.0 OPTIONS        *
* Standard Mode with controls                        *
* Regularization       1.000E-06                     *
* Trust Region Control Active                        *
* Max Number of Memory Steps    8                    *
******************************************************
 
:PLANE:  INTERSTITIAL TOTAL      1.89718 DISTAN  3.120E+01 % 
:CHARG:  CLM CHARGE   /ATOM    107.20969 DISTAN  8.623E-01 % 
:REDuction and DMIX in Broyd:    0.7922    0.1584
 
 Step History DMIX, Red, Pred, Trust, FRMS, FABS
  2  3.5000E-02  1.0000E+00  1.0000E+00  1.0000E+00
  
:DIRM :  MEMORY  1/ 8 RESCALES   4.86
:MIX  :   PRATT  REGULARIZATION: 1.00E-06  GREED: 0.088  Expand 2.50  0.09                
     
       CHARGES OF MIXED CHARGE DENSITY
:CTO   : INTERSTITIAL CHARGE =     7.563403
:CTO001: CHARGE SPHERE  1    =    27.285823
:CTO002: CHARGE SPHERE  2    =    46.411626
:CTO003: CHARGE SPHERE  3    =     6.369574

:NEC03: NUCLEAR AND ELECTRONIC CHARGE     94.00000    94.00000

PW CHANGE     H    K    L       Current     Change     Residue
:PTO001:      0    0    0  6.10507605E-02 -6.745E-04 -7.189E-03
:PTO002:     -1   -1   -1 -2.99099421E-02  3.367E-04  3.924E-03
:PTO003:     -2   -2   -2  5.95542804E-03 -1.275E-03 -1.378E-02
:PTO004:     -1    0    0  6.08605807E-02  2.710E-03  2.947E-02
:PTO005:     -1   -1    0  9.89377127E-02 -2.095E-03 -2.322E-02
:PTO006:     -2   -1   -1 -1.21141582E-02 -3.552E-03 -3.867E-02
:PTO007:     -2   -2   -1 -8.21670238E-02 -4.890E-04 -4.693E-03
:PTO008:     -3   -3   -3  1.66552919E-02  6.231E-04  6.774E-03
:PTO009:     -3   -2   -2 -9.66720922E-03  7.007E-04  7.913E-03
:PTO010:     -3   -3   -2  5.10428171E-02 -7.971E-04 -9.101E-03
:PTO011:     -1    0    1  6.21981407E-02 -6.069E-04 -7.357E-03
:PTO012:     -2   -1    0 -3.61223632E-02  3.100E-04  3.741E-03

:ENE  : ********** TOTAL ENERGY IN Ry =       -15377.92122865

       TOTAL FORCE IN mRy/a.u. = |F|     Fx             Fy             Fz     with/without FOR in case.in2
:FOR001:   1.ATOM          0.000          0.000          0.000          0.000 partial forces
:FOR002:   2.ATOM          0.000          0.000          0.000          0.000 partial forces
:FOR003:   3.ATOM         22.354          0.000          0.000        -22.354 partial forces
       TOTAL FORCE WITH RESPECT TO GLOBAL CARTESIAN COORDINATES:
:FCA001:   1.ATOM                         0.000          0.000          0.000 partial forces
:FCA002:   2.ATOM                         0.000          0.000          0.000 partial forces
:FCA003:   3.ATOM                         0.000          0.000        -22.354 partial forces
       TOTAL FORCE WITH RESPECT TO THE GLOBAL COORDINATE SYSTEM:
:FGL001:   1.ATOM                 0.000000000     0.000000000     0.000000000 partial forces
:FGL002:   2.ATOM                 0.000000000     0.000000000     0.000000000 partial forces
:FGL003:   3.ATOM               -22.353615579   -22.353615579   -22.353615579 partial forces


            ---------
:ITE003:  3. ITERATION
            ---------

:NATO :    3 INDEPENDENT AND    4 TOTAL ATOMS IN UNITCELL
       SUBSTANCE: CuInO2 ShimodeM00                                           

       LATTICE                      = R   
:POT  : POTENTIAL OPTION EX_PBE EC_PBE VX_PBE VC_PBE
:LAT  : LATTICE CONSTANTS=  6.22095  6.22095 32.85838
:VOL  : UNIT CELL VOLUME =     367.08653
       MODE OF CALCULATION IS       = RELA
       NON-SPINPOLARIZED CALCULATION
:IFFT  : FFT-parameters:   90   90   90 Factor: 2.00
       ATOMNUMBER=  1 Cu1        VCOUL-ZERO =  0.27662E+00
:EFG001:                        EFG         =    -0.90021   *10**21  V / m**2
                               V20  TOT/SRF=    -0.77960     0.34293
                               V22  TOT/SRF=     0.00000     0.00000
                               V22M TOT/SRF=     0.00000     0.00000
                               V21  TOT/SRF=     0.00000     0.00000
                               V21M TOT/SRF=     0.00000     0.00000

              0.45010    0.00000    0.00000        0.45010    0.00000    0.00000
              0.00000    0.45010    0.00000        0.00000    0.45010    0.00000
              0.00000    0.00000   -0.90021        0.00000    0.00000   -0.90021

         MAIN DIRECTIONS OF THE EFG   1.0000  0.0000  0.0000
                                      0.0000  1.0000  0.0000
                                      0.0000  0.0000  1.0000
:ANG001:  ANGLE WITH OLD X-AXIS =         0.0

:ETA001:                         ASYMM. ETA =     0.00000


       ATOMNUMBER=  2 In1        VCOUL-ZERO =  0.65757E-01
:EFG002:                        EFG         =     0.80900   *10**21  V / m**2
                               V20  TOT/SRF=     0.70062    -0.07051
                               V22  TOT/SRF=     0.00000     0.00000
                               V22M TOT/SRF=     0.00000     0.00000
                               V21  TOT/SRF=     0.00000     0.00000
                               V21M TOT/SRF=     0.00000     0.00000

             -0.40450    0.00000    0.00000       -0.40450    0.00000    0.00000
              0.00000   -0.40450    0.00000        0.00000   -0.40450    0.00000
              0.00000    0.00000    0.80900        0.00000    0.00000    0.80900

         MAIN DIRECTIONS OF THE EFG   1.0000  0.0000  0.0000
                                      0.0000  1.0000  0.0000
                                      0.0000  0.0000  1.0000
:ANG002:  ANGLE WITH OLD X-AXIS =         0.0

:ETA002:                         ASYMM. ETA =     0.00000


       ATOMNUMBER=  3 O 1        VCOUL-ZERO =  0.29869E-01
:EFG003:                        EFG         =     0.70412   *10**21  V / m**2
                               V20  TOT/SRF=     0.60978     0.36984
                               V22  TOT/SRF=     0.00000     0.00000
                               V22M TOT/SRF=     0.00000     0.00000
                               V21  TOT/SRF=     0.00000     0.00000
                               V21M TOT/SRF=     0.00000     0.00000

             -0.35206    0.00000    0.00000       -0.35206    0.00000    0.00000
              0.00000   -0.35206    0.00000        0.00000   -0.35206    0.00000
              0.00000    0.00000    0.70412        0.00000    0.00000    0.70412

         MAIN DIRECTIONS OF THE EFG   1.0000  0.0000  0.0000
                                      0.0000  1.0000  0.0000
                                      0.0000  0.0000  1.0000
:ANG003:  ANGLE WITH OLD X-AXIS =         0.0

:ETA003:                         ASYMM. ETA =     0.00000


     HELLMANN-FEYNMAN-FORCE IN mRy/a.u. = |F|  Fx       Fy             Fz
:FHF001:   1.ATOM      0.000000000      0.000000000      0.000000000      0.000000000

     HELLMANN-FEYNMAN-FORCE IN mRy/a.u. = |F|  Fx       Fy             Fz
:FHF002:   2.ATOM      0.000000000      0.000000000      0.000000000      0.000000000

     HELLMANN-FEYNMAN-FORCE IN mRy/a.u. = |F|  Fx       Fy             Fz
:FHF003:   3.ATOM     60.594535386      0.000000000      0.000000000    -60.594535386

:FIT001: LUSE= 13 SIGMA OF V-XC FIT FOR ATOM  1  0.8025202E-02
:FIT001: LUSE= 13 SIGMA OF V-XC FIT FOR ATOM  1  0.8025202E-02
:FIT002: LUSE= 13 SIGMA OF V-XC FIT FOR ATOM  2  0.8168317E-02
:FIT002: LUSE= 13 SIGMA OF V-XC FIT FOR ATOM  2  0.8168317E-02
:FIT003: LUSE= 13 SIGMA OF V-XC FIT FOR ATOM  3  0.1054243E-03
:FIT003: LUSE= 13 SIGMA OF V-XC FIT FOR ATOM  3  0.1054243E-03
:DEN  : DENSITY INTEGRAL  =         -6250.61436588   (Ry)
       ELS_POTENTIAL_AT Z=0 and Z=0.5:   0.00000   0.00000
       ELS_POTENTIAL_AT Y=0 and Y=0.5:   0.00000   0.00000
:VZERO:v0,v0c,v0x  -0.76681   0.00000  -0.76681 v5,v5c,v5x  -0.76681   0.00000  -0.76681
:VZERY:v0,v0c,v0x  -0.76681   0.00000  -0.76681 v5,v5c,v5x  -0.76681   0.00000  -0.76681
:VZERX:v0,v0c,v0x  -1.80634  -0.74970  -1.05664 v5,v5c,v5x  -0.92478  -0.41062  -0.51415

          ATOMIC SPHERE DEPENDENT PARAMETERS FOR ATOM  Cu1       
:e__0001: OVERALL ENERGY PARAMETER IS    0.0998
          OVERALL BASIS SET ON ATOM IS LAPW
:E1_0001: E( 1)=    0.0998
             APW+lo
:E1_0001: E( 1)=   -4.7163   E(BOTTOM)=   -4.783   E(TOP)=   -4.649  1  2   162
             LOCAL ORBITAL
:E2_0001: E( 2)=    0.2107   E(BOTTOM)=   -0.117   E(TOP)=    0.539  0  1   135
             APW+lo
:E0_0001: E( 0)=    0.0998
             APW+lo

          ATOMIC SPHERE DEPENDENT PARAMETERS FOR ATOM  In1       
:e__0002: OVERALL ENERGY PARAMETER IS    0.0998
          OVERALL BASIS SET ON ATOM IS LAPW
:E2_0002: E( 2)=   -0.5642   E(BOTTOM)=   -0.978   E(TOP)=   -0.150  1  2   147
             APW+lo
:E2_0002: E( 2)=    0.4998
             LOCAL ORBITAL
:E0_0002: E( 0)=    0.0998
             APW+lo
:E1_0002: E( 1)=    0.0998
             APW+lo

          ATOMIC SPHERE DEPENDENT PARAMETERS FOR ATOM  O 1       
:e__0003: OVERALL ENERGY PARAMETER IS    0.0998
          OVERALL BASIS SET ON ATOM IS LAPW
:E0_0003: E( 0)=   -1.5500   E(BOTTOM)=   -2.765   E(TOP)= -200.000  1 -1   236
             APW+lo
:E0_0003: E( 0)=    0.4998
             LOCAL ORBITAL
:E1_0003: E( 1)=    0.0998
             APW+lo

       K=   0.00000   0.00000   0.00000            1
:RKM  : MATRIX SIZE   809LOs:  36  RKM= 6.98  WEIGHT= 1.00  PGR:    
       EIGENVALUES ARE:
:EIG00001:      -4.7078059   -4.6988368   -4.6988368   -1.1139713   -1.0320672
:EIG00006:      -0.5655464   -0.5655464   -0.5462330   -0.5191562   -0.5191562
:EIG00011:      -0.1544081    0.0553446    0.0981284    0.0981284    0.1155069
:EIG00016:       0.1155069    0.1873533    0.2547425    0.2547425    0.3088248
:EIG00021:       0.3088248    0.4074448    0.7126877    0.7610110    1.2454039
:EIG00026:       1.2454039    1.2948336    1.4841601    1.4841601    1.5339720
:EIG00031:       1.5374732    1.5405117    1.5405117    1.7108655
       ********************************************************

:KPT   :      NUMBER OF K-POINTS:    32
       Insulator, EF-inconsistency corrected
:GAP  :    0.0571 Ry =     0.776 eV   (provided you have a proper k-mesh)
         Bandranges (emin - emax) and occupancy:
:BAN00011:  11   -0.154408   -0.076847  2.00000000
:BAN00012:  12   -0.121227    0.055345  2.00000000
:BAN00013:  13   -0.043024    0.098128  2.00000000
:BAN00014:  14   -0.000229    0.098128  2.00000000
:BAN00015:  15    0.031054    0.154549  2.00000000
:BAN00016:  16    0.100123    0.156711  2.00000000
:BAN00017:  17    0.184562    0.259143  2.00000000
:BAN00018:  18    0.251985    0.279255  2.00000000
:BAN00019:  19    0.254608    0.285534  2.00000000
:BAN00020:  20    0.283515    0.312880  2.00000000
:BAN00021:  21    0.295543    0.350362  2.00000000
:BAN00022:  22    0.407445    0.760398  0.00000000
:BAN00023:  23    0.610435    0.764574  0.00000000
:BAN00024:  24    0.739749    0.985788  0.00000000
:BAN00025:  25    0.888547    1.245404  0.00000000
:BAN00026:  26    1.012500    1.245404  0.00000000
        Energy to separate low and high energystates:   -0.20441


:NOE  : NUMBER OF ELECTRONS          =  42.000

:FER  : F E R M I - ENERGY(TETRAH.M.)=   0.3503619145
:GMA  : POTENTIAL AND CHARGE CUT-OFF  12.00 Ry**.5




:POS001: ATOM   -1 X,Y,Z = 0.00000 0.00000 0.00000  MULT= 1  ZZ= 29.000  Cu1       

       LMMAX  7
       LM=   0 0  2 0  4 0  4 3  6 0  6 3  6 6

:CHA001: TOTAL VALENCE CHARGE INSIDE SPHERE   1 =  15.4768    (RMT=  2.0000 )
:PCS001: PARTIAL CHARGES SPHERE =  1 S,P,D,F,PZ,PXY, D-Z2,D-XY,X2Y2,D-XZ,YZ 
:QTL001: 0.2546 6.1337 9.0614 0.0200 2.1119 4.0218 0.0000 1.6275 3.6865 3.7474 0.0000 0.0000
        Q-s-low E-s-low   Q-p-low E-p-low   Q-d-low E-d-low   Q-f-low E-f-low
:EPL001:  0.0243 -0.9471    6.0094 -4.6857    0.0332 -0.9179    0.0042 -0.9755
        Q-s-hi  E-s-hi    Q-p-hi  E-p-hi    Q-d-hi  E-d-hi    Q-f-hi  E-f-hi 
:EPH001:  0.2303  0.1369    0.1243  0.0414    9.0282  0.2526    0.0158  0.0365
:VZZ001: EFG INSIDE SPHERE   1 =    -6.386015      UP TO R =   2.00000




:POS002: ATOM   -2 X,Y,Z = 0.50000 0.50000 0.50000  MULT= 1  ZZ= 49.000  In1       

       LMMAX  7
       LM=   0 0  2 0  4 0  4 3  6 0  6 3  6 6

:CHA002: TOTAL VALENCE CHARGE INSIDE SPHERE   2 =  10.0645    (RMT=  2.1300 )
:PCS002: PARTIAL CHARGES SPHERE =  2 S,P,D,F,PZ,PXY, D-Z2,D-XY,X2Y2,D-XZ,YZ 
:QTL002: 0.2725 0.2120 9.5427 0.0304 0.0596 0.1524 0.0000 1.8930 3.8194 3.8303 0.0000 0.0000
        Q-s-low E-s-low   Q-p-low E-p-low   Q-d-low E-d-low   Q-f-low E-f-low
:EPL002:  0.0251 -1.0258    0.0251 -0.9945    9.0919 -0.5334    0.0040 -1.0042
        Q-s-hi  E-s-hi    Q-p-hi  E-p-hi    Q-d-hi  E-d-hi    Q-f-hi  E-f-hi 
:EPH002:  0.2475 -0.0824    0.1868  0.0153    0.4508  0.0481    0.0264  0.0519
:VZZ002: EFG INSIDE SPHERE   2 =     7.515484      UP TO R =   2.13000




:POS003: ATOM   -3 X,Y,Z = 0.10553 0.10553 0.10553  MULT= 2  ZZ=  8.000  O 1       

       LMMAX 12
       LM=   0 0  1 0  2 0  3 0  3 3  4 0  4 3  5 0  5 3  6 0  6 3  6 6

:CHA003: TOTAL VALENCE CHARGE INSIDE SPHERE   3 =   4.7739    (RMT=  1.4000 )
:PCS003: PARTIAL CHARGES SPHERE =  3 S,P,D,F,PZ,PXY, D-Z2,D-XY,X2Y2,D-XZ,YZ 
:QTL003: 1.4214 3.3447 0.0065 0.0010 1.0940 2.2507 0.0000 0.0016 0.0013 0.0036 0.0000 0.0000
        Q-s-low E-s-low   Q-p-low E-p-low   Q-d-low E-d-low   Q-f-low E-f-low
:EPL003:  1.3862 -1.0444    0.0818 -0.5451    0.0019 -0.6875    0.0003 -0.8644
        Q-s-hi  E-s-hi    Q-p-hi  E-p-hi    Q-d-hi  E-d-hi    Q-f-hi  E-f-hi 
:EPH003:  0.0352  0.0046    3.2629  0.0395    0.0046  0.1859    0.0007  0.1996
:VZZ003: EFG INSIDE SPHERE   3 =     2.420900      UP TO R =   1.40000

:CHA  : TOTAL VALENCE CHARGE INSIDE UNIT CELL =      42.000000

:SUM  : SUM OF EIGENVALUES =         -34.870991705


        1.ATOM      Cu1                   5 CORE STATES
:1S 001: 1S                -649.728678182 Ry
:2S 001: 2S                 -77.454486906 Ry
:2PP001: 2P*                -67.767593924 Ry
:2P 001: 2P                 -66.261785205 Ry
:3S 001: 3S                  -7.834888595 Ry

        2.ATOM      In1                  12 CORE STATES
:1S 002: 1S               -2037.762803952 Ry
:2S 002: 2S                -304.296943675 Ry
:2PP002: 2P*               -283.706991872 Ry
:2P 002: 2P                -268.207695663 Ry
:3S 002: 3S                 -57.050354103 Ry
:3PP002: 3P*                -48.743384177 Ry
:3P 002: 3P                 -45.943706929 Ry
:3DD002: 3D*                -31.257108919 Ry
:3D 002: 3D                 -30.683530958 Ry
:4S 002: 4S                  -7.931322187 Ry
:4PP002: 4P*                 -5.220781333 Ry
:4P 002: 4P                  -4.732954153 Ry

        3.ATOM      O 1                   1 CORE STATES
       CORE-FORCE in mRy/a.u. = |F|      Fx             Fy             Fz
:FCO003:   3.ATOM      6.988396836      0.000000000      0.000000000      6.988396836

:1S 003: 1S                 -36.907496341 Ry
:CINT001 Core Integral Atom   1   11.998519
:CINT002 Core Integral Atom   2   35.973925
:CINT003 Core Integral Atom   3    1.999999

       DENSITY AT NUCLEUS
        JATOM        VALENCE       SEMI-CORE          CORE           TOTAL
:RTO001:   1        7.276070        0.000000    22629.754372    22637.030442
:RTO002:   2       30.088095        0.000000   236275.460666   236305.548760
:RTO003:   3       15.541696        0.000000      303.928069      319.469765
     
       CHARGES OF NEW CHARGE DENSITY
:NTO   : INTERSTITIAL CHARGE =     6.910869
:NTO001: CHARGE SPHERE  1    =    27.475291
:NTO002: CHARGE SPHERE  2    =    46.038472
:NTO003: CHARGE SPHERE  3    =     6.773891

:NEC01: NUCLEAR AND ELECTRONIC CHARGE     94.00000    93.97241
     
       CHARGES OF OLD CHARGE DENSITY
:OTO   : INTERSTITIAL CHARGE =     7.563403
:OTO001: CHARGE SPHERE  1    =    27.285823
:OTO002: CHARGE SPHERE  2    =    46.411626
:OTO003: CHARGE SPHERE  3    =     6.369574

:NEC02: NUCLEAR AND ELECTRONIC CHARGE     94.00000    94.00000
     
       CONVERGENCE TEST
:DTO001: DIFFERENCE IN SPHERE  1 =  0.3338991
:DTO002: DIFFERENCE IN SPHERE  2 =  0.2594045
:DTO003: DIFFERENCE IN SPHERE  3 =  0.4843900

:DIS  :  CHARGE DISTANCE       ( 0.4843900 for atom    3 spin 1)      0.3905209
:BIG check (qbig,qrms,qtot)    0.161D+00   0.285D+00   0.391D+00
 
******************************************************
* MULTISECANT MIXING VER6 RELEASE 6.0 OPTIONS        *
* Standard Mode with controls                        *
* Regularization       1.000E-06                     *
* Trust Region Control Active                        *
* Max Number of Memory Steps    8                    *
******************************************************
 
:PLANE:  INTERSTITIAL TOTAL      1.88773 DISTAN  2.781E+01 % 
:CHARG:  CLM CHARGE   /ATOM    107.21855 DISTAN  6.106E-01 % 
:REDuction and DMIX in Broyd:    0.9267    0.1853
 
 Step History DMIX, Red, Pred, Trust, FRMS, FABS
  2  3.5000E-02  1.0000E+00  1.0000E+00  1.0000E+00
  3  8.7500E-02  1.0000E+00  1.0000E+00  1.0000E+00
  
:NORMS:  Nuclear, Spectral, Froebius, Shanno-Pua   0.2918E+01  0.2904E+01  0.2904E+01  0.2854E+00
:INFO :  Number of Memory Steps    2 Skipping    0
:INFO :  SLambda=    2.9182536  Max    2.9182536

Eigenvalues, unscaled except for SY+YY
   #     SY Real        SY Imag          SS             YY         SY+YY Real      SY+YY Imag
   1   5.707144E-01   0.000000E+00   2.372235E-01   1.999949E+00   3.665434E+00   0.000000E+00
   2  -5.551115E-16   0.000000E+00  -5.551115E-17   5.122845E-05   5.513644E-05   0.000000E+00
 
:INFO :  Singular value   3.665E+00 Weight  1.0000E+00 Projections  -1.187E+02  1.903E+00
:INFO :  Singular value   5.514E-05 Weight  9.9869E-01 Projections   1.161E+02  1.660E+02
 
:DIRM :  MEMORY 2/8 RESCALE   4.46 RED 0.798 PRED 1.000 NEXT 0.777
:INFO :  Blimit    1.537E+00  1.005E+00  6.496E-01  2.611E+00
:DIRP :  |MSR1|= 9.699E-01 |PRATT|= 2.339E+00 ANGLE=   1.6 DEGREES
:DIRQ :  |MSR1|= 8.989E-01 |PRATT|= 1.964E+00 ANGLE=  12.2 DEGREES
:DIR  :  |MSR1|= 1.322E+00 |PRATT|= 3.054E+00 ANGLE=   8.6 DEGREES
:MIX  :   MSE1   REGULARIZATION: 2.00E-06  GREED: 0.097  Newton 1.00  0.43                
     
       CHARGES OF MIXED CHARGE DENSITY
:CTO   : INTERSTITIAL CHARGE =     7.257434
:CTO001: CHARGE SPHERE  1    =    27.399335
:CTO002: CHARGE SPHERE  2    =    46.246458
:CTO003: CHARGE SPHERE  3    =     6.548386

:NEC03: NUCLEAR AND ELECTRONIC CHARGE     94.00000    94.00000

PW CHANGE     H    K    L       Current     Change     Residue
:PTO001:      0    0    0  5.85354946E-02 -2.515E-03 -5.863E-03
:PTO002:     -1   -1   -1 -2.83307865E-02  1.579E-03  4.127E-03
:PTO003:     -2   -2   -2  9.98584129E-04 -4.957E-03 -1.176E-02
:PTO004:     -1    0    0  7.17587933E-02  1.090E-02  2.559E-02
:PTO005:     -1   -1    0  9.03055887E-02 -8.632E-03 -2.140E-02
:PTO006:     -2   -1   -1 -2.61429203E-02 -1.403E-02 -3.378E-02
:PTO007:     -2   -2   -1 -8.33958263E-02 -1.229E-03 -2.430E-03
:PTO008:     -3   -3   -3  1.91335349E-02  2.478E-03  5.880E-03
:PTO009:     -3   -2   -2 -6.52533413E-03  3.142E-03  7.643E-03
:PTO010:     -3   -3   -2  4.75083545E-02 -3.534E-03 -9.106E-03
:PTO011:     -1    0    1  5.89799017E-02 -3.218E-03 -8.417E-03
:PTO012:     -2   -1    0 -3.44266110E-02  1.696E-03  4.213E-03

:ENE  : ********** TOTAL ENERGY IN Ry =       -15377.82598998

       TOTAL FORCE IN mRy/a.u. = |F|     Fx             Fy             Fz     with/without FOR in case.in2
:FOR001:   1.ATOM          0.000          0.000          0.000          0.000 partial forces
:FOR002:   2.ATOM          0.000          0.000          0.000          0.000 partial forces
:FOR003:   3.ATOM         53.606          0.000          0.000        -53.606 partial forces
       TOTAL FORCE WITH RESPECT TO GLOBAL CARTESIAN COORDINATES:
:FCA001:   1.ATOM                         0.000          0.000          0.000 partial forces
:FCA002:   2.ATOM                         0.000          0.000          0.000 partial forces
:FCA003:   3.ATOM                         0.000          0.000        -53.606 partial forces
       TOTAL FORCE WITH RESPECT TO THE GLOBAL COORDINATE SYSTEM:
:FGL001:   1.ATOM                 0.000000000     0.000000000     0.000000000 partial forces
:FGL002:   2.ATOM                 0.000000000     0.000000000     0.000000000 partial forces
:FGL003:   3.ATOM               -53.606138550   -53.606138550   -53.606138550 partial forces


            ---------
:ITE004:  4. ITERATION
            ---------

:NATO :    3 INDEPENDENT AND    4 TOTAL ATOMS IN UNITCELL
       SUBSTANCE: CuInO2 ShimodeM00                                           

       LATTICE                      = R   
:POT  : POTENTIAL OPTION EX_PBE EC_PBE VX_PBE VC_PBE
:LAT  : LATTICE CONSTANTS=  6.22095  6.22095 32.85838
:VOL  : UNIT CELL VOLUME =     367.08653
       MODE OF CALCULATION IS       = RELA
       NON-SPINPOLARIZED CALCULATION
:IFFT  : FFT-parameters:   90   90   90 Factor: 2.00
       ATOMNUMBER=  1 Cu1        VCOUL-ZERO =  0.30704E+00
:EFG001:                        EFG         =    -4.08778   *10**21  V / m**2
                               V20  TOT/SRF=    -3.54012     0.17872
                               V22  TOT/SRF=     0.00000     0.00000
                               V22M TOT/SRF=     0.00000     0.00000
                               V21  TOT/SRF=     0.00000     0.00000
                               V21M TOT/SRF=     0.00000     0.00000

              2.04389    0.00000    0.00000        2.04389    0.00000    0.00000
              0.00000    2.04389    0.00000        0.00000    2.04389    0.00000
              0.00000    0.00000   -4.08778        0.00000    0.00000   -4.08778

         MAIN DIRECTIONS OF THE EFG   1.0000  0.0000  0.0000
                                      0.0000  1.0000  0.0000
                                      0.0000  0.0000  1.0000
:ANG001:  ANGLE WITH OLD X-AXIS =         0.0

:ETA001:                         ASYMM. ETA =     0.00000


       ATOMNUMBER=  2 In1        VCOUL-ZERO =  0.92237E-03
:EFG002:                        EFG         =     3.96132   *10**21  V / m**2
                               V20  TOT/SRF=     3.43061    -0.03455
                               V22  TOT/SRF=     0.00000     0.00000
                               V22M TOT/SRF=     0.00000     0.00000
                               V21  TOT/SRF=     0.00000     0.00000
                               V21M TOT/SRF=     0.00000     0.00000

             -1.98066    0.00000    0.00000       -1.98066    0.00000    0.00000
              0.00000   -1.98066    0.00000        0.00000   -1.98066    0.00000
              0.00000    0.00000    3.96132        0.00000    0.00000    3.96132

         MAIN DIRECTIONS OF THE EFG   1.0000  0.0000  0.0000
                                      0.0000  1.0000  0.0000
                                      0.0000  0.0000  1.0000
:ANG002:  ANGLE WITH OLD X-AXIS =         0.0

:ETA002:                         ASYMM. ETA =     0.00000


       ATOMNUMBER=  3 O 1        VCOUL-ZERO =  0.14352E+00
:EFG003:                        EFG         =     1.56079   *10**21  V / m**2
                               V20  TOT/SRF=     1.35168     0.31679
                               V22  TOT/SRF=     0.00000     0.00000
                               V22M TOT/SRF=     0.00000     0.00000
                               V21  TOT/SRF=     0.00000     0.00000
                               V21M TOT/SRF=     0.00000     0.00000

             -0.78039    0.00000    0.00000       -0.78039    0.00000    0.00000
              0.00000   -0.78039    0.00000        0.00000   -0.78039    0.00000
              0.00000    0.00000    1.56079        0.00000    0.00000    1.56079

         MAIN DIRECTIONS OF THE EFG   1.0000  0.0000  0.0000
                                      0.0000  1.0000  0.0000
                                      0.0000  0.0000  1.0000
:ANG003:  ANGLE WITH OLD X-AXIS =         0.0

:ETA003:                         ASYMM. ETA =     0.00000


     HELLMANN-FEYNMAN-FORCE IN mRy/a.u. = |F|  Fx       Fy             Fz
:FHF001:   1.ATOM      0.000000000      0.000000000      0.000000000      0.000000000

     HELLMANN-FEYNMAN-FORCE IN mRy/a.u. = |F|  Fx       Fy             Fz
:FHF002:   2.ATOM      0.000000000      0.000000000      0.000000000      0.000000000

     HELLMANN-FEYNMAN-FORCE IN mRy/a.u. = |F|  Fx       Fy             Fz
:FHF003:   3.ATOM    145.550799095      0.000000000      0.000000000   -145.550799095

:FIT001: LUSE= 13 SIGMA OF V-XC FIT FOR ATOM  1  0.8121991E-02
:FIT001: LUSE= 13 SIGMA OF V-XC FIT FOR ATOM  1  0.8121991E-02
:FIT002: LUSE= 13 SIGMA OF V-XC FIT FOR ATOM  2  0.1068077E-01
:FIT002: LUSE= 13 SIGMA OF V-XC FIT FOR ATOM  2  0.1068077E-01
:FIT003: LUSE= 13 SIGMA OF V-XC FIT FOR ATOM  3  0.1057096E-03
:FIT003: LUSE= 13 SIGMA OF V-XC FIT FOR ATOM  3  0.1057096E-03
:DEN  : DENSITY INTEGRAL  =         -6254.95460484   (Ry)
       ELS_POTENTIAL_AT Z=0 and Z=0.5:   0.00000   0.00000
       ELS_POTENTIAL_AT Y=0 and Y=0.5:   0.00000   0.00000
:VZERO:v0,v0c,v0x  -0.74636   0.00000  -0.74636 v5,v5c,v5x  -0.74636   0.00000  -0.74636
:VZERY:v0,v0c,v0x  -0.74636   0.00000  -0.74636 v5,v5c,v5x  -0.74636   0.00000  -0.74636
:VZERX:v0,v0c,v0x  -1.65986  -0.59826  -1.06161 v5,v5c,v5x  -0.96889  -0.52054  -0.44835

          ATOMIC SPHERE DEPENDENT PARAMETERS FOR ATOM  Cu1       
:e__0001: OVERALL ENERGY PARAMETER IS    0.1504
          OVERALL BASIS SET ON ATOM IS LAPW
:E1_0001: E( 1)=    0.1504
             APW+lo
:E1_0001: E( 1)=   -4.5210   E(BOTTOM)=   -4.592   E(TOP)=   -4.450  1  2   176
             LOCAL ORBITAL
:E2_0001: E( 2)=    0.3811   E(BOTTOM)=    0.030   E(TOP)=    0.732  0  1   140
             APW+lo
:E0_0001: E( 0)=    0.1504
             APW+lo

          ATOMIC SPHERE DEPENDENT PARAMETERS FOR ATOM  In1       
:e__0002: OVERALL ENERGY PARAMETER IS    0.1504
          OVERALL BASIS SET ON ATOM IS LAPW
:E2_0002: E( 2)=   -0.6586   E(BOTTOM)=   -1.066   E(TOP)=   -0.251  1  2   141
             APW+lo
:E2_0002: E( 2)=    0.5504
             LOCAL ORBITAL
:E0_0002: E( 0)=    0.1504
             APW+lo
:E1_0002: E( 1)=    0.1504
             APW+lo

          ATOMIC SPHERE DEPENDENT PARAMETERS FOR ATOM  O 1       
:e__0003: OVERALL ENERGY PARAMETER IS    0.1504
          OVERALL BASIS SET ON ATOM IS LAPW
:E0_0003: E( 0)=   -1.5500   E(BOTTOM)=   -2.586   E(TOP)= -200.000  1 -1   232
             APW+lo
:E0_0003: E( 0)=    0.5504
             LOCAL ORBITAL
:E1_0003: E( 1)=    0.1504
             APW+lo

       K=   0.00000   0.00000   0.00000            1
:RKM  : MATRIX SIZE   809LOs:  36  RKM= 6.98  WEIGHT= 1.00  PGR:    
       EIGENVALUES ARE:
:EIG00001:      -4.5082333   -4.5043521   -4.5043521   -0.9864641   -0.8819639
:EIG00006:      -0.6433358   -0.6433358   -0.6291581   -0.6119694   -0.6119694
:EIG00011:      -0.0595015    0.1997841    0.2389891    0.2389891    0.2504011
:EIG00016:       0.2504011    0.2532688    0.4117674    0.4117674    0.4771755
:EIG00021:       0.4771755    0.4998779    0.7266569    0.8672585    1.2260754
:EIG00026:       1.2260754    1.3092417    1.5259089    1.5299000    1.5299000
:EIG00031:       1.5486191    1.5486191    1.5526393    1.6968470
       ********************************************************

:KPT   :      NUMBER OF K-POINTS:    32
:GAP  : -99999.   Ry = -9999.    eV  ( metallic )
         Bandranges (emin - emax) and occupancy:
:BAN00012:  12   -0.024078    0.199784  2.00000000
:BAN00013:  13    0.061501    0.238989  2.00000000
:BAN00014:  14    0.121419    0.238989  2.00000000
:BAN00015:  15    0.160332    0.275436  2.00000000
:BAN00016:  16    0.234236    0.291363  2.00000000
:BAN00017:  17    0.253269    0.412182  2.00000000
:BAN00018:  18    0.402204    0.443724  2.00000000
:BAN00019:  19    0.411538    0.446373  2.00000000
:BAN00020:  20    0.436822    0.483153  2.00000000
:BAN00021:  21    0.455575    0.503893  1.99995668
:BAN00022:  22    0.499878    0.798242  0.00004332
:BAN00023:  23    0.726657    0.804512  0.00000000
:BAN00024:  24    0.792037    1.004670  0.00000000
:BAN00025:  25    0.949818    1.227653  0.00000000
:BAN00026:  26    1.056581    1.257943  0.00000000
:BAN00027:  27    1.105119    1.309242  0.00000000
        Energy to separate low and high energystates:   -0.11830


:NOE  : NUMBER OF ELECTRONS          =  42.000

:FER  : F E R M I - ENERGY(TETRAH.M.)=   0.5035268567
:GMA  : POTENTIAL AND CHARGE CUT-OFF  12.00 Ry**.5




:POS001: ATOM   -1 X,Y,Z = 0.00000 0.00000 0.00000  MULT= 1  ZZ= 29.000  Cu1       

       LMMAX  7
       LM=   0 0  2 0  4 0  4 3  6 0  6 3  6 6

:CHA001: TOTAL VALENCE CHARGE INSIDE SPHERE   1 =  15.1205    (RMT=  2.0000 )
:PCS001: PARTIAL CHARGES SPHERE =  1 S,P,D,F,PZ,PXY, D-Z2,D-XY,X2Y2,D-XZ,YZ 
:QTL001: 0.3072 6.1557 8.6320 0.0193 2.1198 4.0359 0.0000 1.3921 3.5728 3.6671 0.0000 0.0000
        Q-s-low E-s-low   Q-p-low E-p-low   Q-d-low E-d-low   Q-f-low E-f-low
:EPL001:  0.0242 -0.8510    6.0072 -4.4903    0.0282 -0.8436    0.0037 -0.8562
        Q-s-hi  E-s-hi    Q-p-hi  E-p-hi    Q-d-hi  E-d-hi    Q-f-hi  E-f-hi 
:EPH001:  0.2830  0.2535    0.1485  0.1828    8.6037  0.4108    0.0155  0.1696
:VZZ001: EFG INSIDE SPHERE   1 =    -0.520675      UP TO R =   2.00000




:POS002: ATOM   -2 X,Y,Z = 0.50000 0.50000 0.50000  MULT= 1  ZZ= 49.000  In1       

       LMMAX  7
       LM=   0 0  2 0  4 0  4 3  6 0  6 3  6 6

:CHA002: TOTAL VALENCE CHARGE INSIDE SPHERE   2 =  10.3056    (RMT=  2.1300 )
:PCS002: PARTIAL CHARGES SPHERE =  2 S,P,D,F,PZ,PXY, D-Z2,D-XY,X2Y2,D-XZ,YZ 
:QTL002: 0.3835 0.2907 9.5891 0.0353 0.0844 0.2062 0.0000 1.9017 3.8388 3.8486 0.0000 0.0000
        Q-s-low E-s-low   Q-p-low E-p-low   Q-d-low E-d-low   Q-f-low E-f-low
:EPL002:  0.0340 -0.9269    0.0315 -0.8802    9.2910 -0.6201    0.0044 -0.8751
        Q-s-hi  E-s-hi    Q-p-hi  E-p-hi    Q-d-hi  E-d-hi    Q-f-hi  E-f-hi 
:EPH002:  0.3496  0.0087    0.2592  0.1361    0.2982  0.1768    0.0309  0.1815
:VZZ002: EFG INSIDE SPHERE   2 =     8.626080      UP TO R =   2.13000




:POS003: ATOM   -3 X,Y,Z = 0.10553 0.10553 0.10553  MULT= 2  ZZ=  8.000  O 1       

       LMMAX 12
       LM=   0 0  1 0  2 0  3 0  3 3  4 0  4 3  5 0  5 3  6 0  6 3  6 6

:CHA003: TOTAL VALENCE CHARGE INSIDE SPHERE   3 =   4.3797    (RMT=  1.4000 )
:PCS003: PARTIAL CHARGES SPHERE =  3 S,P,D,F,PZ,PXY, D-Z2,D-XY,X2Y2,D-XZ,YZ 
:QTL003: 1.3837 2.9873 0.0075 0.0010 0.9929 1.9944 0.0000 0.0014 0.0015 0.0046 0.0000 0.0000
        Q-s-low E-s-low   Q-p-low E-p-low   Q-d-low E-d-low   Q-f-low E-f-low
:EPL003:  1.3294 -0.8965    0.0404 -0.6368    0.0017 -0.7753    0.0003 -0.9442
        Q-s-hi  E-s-hi    Q-p-hi  E-p-hi    Q-d-hi  E-d-hi    Q-f-hi  E-f-hi 
:EPH003:  0.0543  0.0896    2.9469  0.1636    0.0058  0.3332    0.0007  0.3577
:VZZ003: EFG INSIDE SPHERE   3 =     0.658781      UP TO R =   1.40000

:CHA  : TOTAL VALENCE CHARGE INSIDE UNIT CELL =      42.000000

:SUM  : SUM OF EIGENVALUES =         -31.048281602


        1.ATOM      Cu1                   5 CORE STATES
:1S 001: 1S                -649.457099846 Ry
:2S 001: 2S                 -77.178166442 Ry
:2PP001: 2P*                -67.490324756 Ry
:2P 001: 2P                 -65.984620564 Ry
:3S 001: 3S                  -7.632081732 Ry

        2.ATOM      In1                  12 CORE STATES
:1S 002: 1S               -2037.883505718 Ry
:2S 002: 2S                -304.411826506 Ry
:2PP002: 2P*               -283.822591732 Ry
:2P 002: 2P                -268.323076985 Ry
:3S 002: 3S                 -57.161114944 Ry
:3PP002: 3P*                -48.854304086 Ry
:3P 002: 3P                 -46.054432715 Ry
:3DD002: 3D*                -31.368129740 Ry
:3D 002: 3D                 -30.794491626 Ry
:4S 002: 4S                  -8.034288550 Ry
:4PP002: 4P*                 -5.322619592 Ry
:4P 002: 4P                  -4.834164674 Ry

        3.ATOM      O 1                   1 CORE STATES
       CORE-FORCE in mRy/a.u. = |F|      Fx             Fy             Fz
:FCO003:   3.ATOM      8.993232336      0.000000000      0.000000000      8.993232336

:1S 003: 1S                 -36.566184004 Ry
:CINT001 Core Integral Atom   1   11.998409
:CINT002 Core Integral Atom   2   35.974608
:CINT003 Core Integral Atom   3    1.999999

       DENSITY AT NUCLEUS
        JATOM        VALENCE       SEMI-CORE          CORE           TOTAL
:RTO001:   1        8.914913        0.000000    22627.768601    22636.683514
:RTO002:   2       43.650834        0.000000   236276.834283   236320.485117
:RTO003:   3       14.798910        0.000000      303.790135      318.589045
     
       CHARGES OF NEW CHARGE DENSITY
:NTO   : INTERSTITIAL CHARGE =     7.814442
:NTO001: CHARGE SPHERE  1    =    27.118868
:NTO002: CHARGE SPHERE  2    =    46.280254
:NTO003: CHARGE SPHERE  3    =     6.379714

:NEC01: NUCLEAR AND ELECTRONIC CHARGE     94.00000    93.97299
     
       CHARGES OF OLD CHARGE DENSITY
:OTO   : INTERSTITIAL CHARGE =     7.257434
:OTO001: CHARGE SPHERE  1    =    27.399335
:OTO002: CHARGE SPHERE  2    =    46.246458
:OTO003: CHARGE SPHERE  3    =     6.548386

:NEC02: NUCLEAR AND ELECTRONIC CHARGE     94.00000    94.00000
     
       CONVERGENCE TEST
:DTO001: DIFFERENCE IN SPHERE  1 =  1.0124199
:DTO002: DIFFERENCE IN SPHERE  2 =  0.1743692
:DTO003: DIFFERENCE IN SPHERE  3 =  0.4182932

:DIS  :  CHARGE DISTANCE       ( 1.0124199 for atom    1 spin 1)      0.5058439
:BIG check (qbig,qrms,qtot)    0.337D+00   0.419D+00   0.506D+00
 
******************************************************
* MULTISECANT MIXING VER6 RELEASE 6.0 OPTIONS        *
* Standard Mode with controls                        *
* Regularization       1.000E-06                     *
* Trust Region Control Active                        *
* Max Number of Memory Steps    8                    *
******************************************************
 
:PLANE:  INTERSTITIAL TOTAL      1.85949 DISTAN  1.562E+01 % 
:CHARG:  CLM CHARGE   /ATOM    107.24570 DISTAN  6.958E-01 % 
:REDuction and DMIX in Broyd:    0.8530    0.1706
 
 Step History DMIX, Red, Pred, Trust, FRMS, FABS
  2  3.5000E-02  1.0000E+00  1.0000E+00  1.0000E+00
  3  8.7500E-02  7.9800E-01  1.0000E+00  1.0000E+00
  4  9.7436E-02  1.0000E+00  7.7718E-01  2.6114E+00
  
:NORMS:  Nuclear, Spectral, Froebius, Shanno-Pua   0.2557E+01  0.2570E+01  0.2570E+01  0.3065E+00
:INFO :  Number of Memory Steps    3 Skipping    0
:INFO :  SLambda=    2.5704653  Max    2.5704653

Eigenvalues, unscaled except for SY+YY
   #     SY Real        SY Imag          SS             YY         SY+YY Real      SY+YY Imag
   1   9.192583E-01   0.000000E+00   4.539631E-01   2.999467E+00   5.362410E+00   0.000000E+00
   2   6.913396E-17   0.000000E+00   8.173085E-17   3.043830E-06   3.412092E-06   0.000000E+00
   3   3.227044E-04   0.000000E+00   1.717293E-04   5.298764E-04   1.337130E-03   0.000000E+00
 
:INFO :  Singular value   5.362E+00 Weight  1.0000E+00 Projections  -1.987E+02 -2.928E-01
:INFO :  Singular value   1.337E-03 Weight  1.0000E+00 Projections   3.456E+02 -8.979E+01
:INFO :  Singular value   3.412E-06 Weight  5.6405E-01 Projections  -1.458E+02  4.149E+02
 
:DIRM :  MEMORY 3/8 RESCALE   5.10 RED 0.809 PRED 0.777 NEXT 0.493
:INFO :  Blimit    2.027E+00  1.005E+00  7.482E-01  3.008E+00
:DIRP :  |MSR1|= 9.910E-01 |PRATT|= 1.481E+00 ANGLE=   8.0 DEGREES
:DIRQ :  |MSR1|= 9.508E-01 |PRATT|= 2.239E+00 ANGLE=  38.3 DEGREES
:DIR  :  |MSR1|= 1.373E+00 |PRATT|= 2.684E+00 ANGLE=  32.1 DEGREES
:MIX  :   MSE1   REGULARIZATION: 3.00E-06  GREED: 0.112  Newton 1.00  0.51                
     
       CHARGES OF MIXED CHARGE DENSITY
:CTO   : INTERSTITIAL CHARGE =     7.477611
:CTO001: CHARGE SPHERE  1    =    27.385352
:CTO002: CHARGE SPHERE  2    =    46.230439
:CTO003: CHARGE SPHERE  3    =     6.453299

:NEC03: NUCLEAR AND ELECTRONIC CHARGE     94.00000    94.00000

PW CHANGE     H    K    L       Current     Change     Residue
:PTO001:      0    0    0  5.74597794E-02 -1.076E-03 -1.133E-03
:PTO002:     -1   -1   -1 -2.61187006E-02  2.212E-03  4.018E-03
:PTO003:     -2   -2   -2 -2.19020286E-03 -3.189E-03 -4.209E-03
:PTO004:     -1    0    0  7.98751723E-02  8.116E-03  9.592E-03
:PTO005:     -1   -1    0  8.17988494E-02 -8.507E-03 -1.401E-02
:PTO006:     -2   -1   -1 -3.64499182E-02 -1.031E-02 -1.513E-02
:PTO007:     -2   -2   -1 -8.07138764E-02  2.682E-03  4.776E-03
:PTO008:     -3   -3   -3  2.08659165E-02  1.732E-03  2.251E-03
:PTO009:     -3   -2   -2 -2.49106323E-03  4.034E-03  5.712E-03
:PTO010:     -3   -3   -2  4.25500076E-02 -4.958E-03 -8.697E-03
:PTO011:     -1    0    1  5.23752436E-02 -6.605E-03 -1.083E-02
:PTO012:     -2   -1    0 -3.05892870E-02  3.837E-03  5.430E-03

:ENE  : ********** TOTAL ENERGY IN Ry =       -15377.78811873

       TOTAL FORCE IN mRy/a.u. = |F|     Fx             Fy             Fz     with/without FOR in case.in2
:FOR001:   1.ATOM          0.000          0.000          0.000          0.000 partial forces
:FOR002:   2.ATOM          0.000          0.000          0.000          0.000 partial forces
:FOR003:   3.ATOM        136.558          0.000          0.000       -136.558 partial forces
       TOTAL FORCE WITH RESPECT TO GLOBAL CARTESIAN COORDINATES:
:FCA001:   1.ATOM                         0.000          0.000          0.000 partial forces
:FCA002:   2.ATOM                         0.000          0.000          0.000 partial forces
:FCA003:   3.ATOM                         0.000          0.000       -136.558 partial forces
       TOTAL FORCE WITH RESPECT TO THE GLOBAL COORDINATE SYSTEM:
:FGL001:   1.ATOM                 0.000000000     0.000000000     0.000000000 partial forces
:FGL002:   2.ATOM                 0.000000000     0.000000000     0.000000000 partial forces
:FGL003:   3.ATOM              -136.557566759  -136.557566759  -136.557566759 partial forces


            ---------
:ITE005:  5. ITERATION
            ---------

:NATO :    3 INDEPENDENT AND    4 TOTAL ATOMS IN UNITCELL
       SUBSTANCE: CuInO2 ShimodeM00                                           

       LATTICE                      = R   
:POT  : POTENTIAL OPTION EX_PBE EC_PBE VX_PBE VC_PBE
:LAT  : LATTICE CONSTANTS=  6.22095  6.22095 32.85838
:VOL  : UNIT CELL VOLUME =     367.08653
       MODE OF CALCULATION IS       = RELA
       NON-SPINPOLARIZED CALCULATION
:IFFT  : FFT-parameters:   90   90   90 Factor: 2.00
       ATOMNUMBER=  1 Cu1        VCOUL-ZERO =  0.31247E+00
:EFG001:                        EFG         =    -6.58584   *10**21  V / m**2
                               V20  TOT/SRF=    -5.70351     0.24800
                               V22  TOT/SRF=     0.00000     0.00000
                               V22M TOT/SRF=     0.00000     0.00000
                               V21  TOT/SRF=     0.00000     0.00000
                               V21M TOT/SRF=     0.00000     0.00000

              3.29292    0.00000    0.00000        3.29292    0.00000    0.00000
              0.00000    3.29292    0.00000        0.00000    3.29292    0.00000
              0.00000    0.00000   -6.58584        0.00000    0.00000   -6.58584

         MAIN DIRECTIONS OF THE EFG   1.0000  0.0000  0.0000
                                      0.0000  1.0000  0.0000
                                      0.0000  0.0000  1.0000
:ANG001:  ANGLE WITH OLD X-AXIS =         0.0

:ETA001:                         ASYMM. ETA =     0.00000


       ATOMNUMBER=  2 In1        VCOUL-ZERO =  0.11070E-02
:EFG002:                        EFG         =     9.76420   *10**21  V / m**2
                               V20  TOT/SRF=     8.45605    -0.01047
                               V22  TOT/SRF=     0.00000     0.00000
                               V22M TOT/SRF=     0.00000     0.00000
                               V21  TOT/SRF=     0.00000     0.00000
                               V21M TOT/SRF=     0.00000     0.00000

             -4.88210    0.00000    0.00000       -4.88210    0.00000    0.00000
              0.00000   -4.88210    0.00000        0.00000   -4.88210    0.00000
              0.00000    0.00000    9.76420        0.00000    0.00000    9.76420

         MAIN DIRECTIONS OF THE EFG   1.0000  0.0000  0.0000
                                      0.0000  1.0000  0.0000
                                      0.0000  0.0000  1.0000
:ANG002:  ANGLE WITH OLD X-AXIS =         0.0

:ETA002:                         ASYMM. ETA =     0.00000


       ATOMNUMBER=  3 O 1        VCOUL-ZERO =  0.12827E+00
:EFG003:                        EFG         =     1.20629   *10**21  V / m**2
                               V20  TOT/SRF=     1.04468     0.34476
                               V22  TOT/SRF=     0.00000     0.00000
                               V22M TOT/SRF=     0.00000     0.00000
                               V21  TOT/SRF=     0.00000     0.00000
                               V21M TOT/SRF=     0.00000     0.00000

             -0.60315    0.00000    0.00000       -0.60315    0.00000    0.00000
              0.00000   -0.60315    0.00000        0.00000   -0.60315    0.00000
              0.00000    0.00000    1.20629        0.00000    0.00000    1.20629

         MAIN DIRECTIONS OF THE EFG   1.0000  0.0000  0.0000
                                      0.0000  1.0000  0.0000
                                      0.0000  0.0000  1.0000
:ANG003:  ANGLE WITH OLD X-AXIS =         0.0

:ETA003:                         ASYMM. ETA =     0.00000


     HELLMANN-FEYNMAN-FORCE IN mRy/a.u. = |F|  Fx       Fy             Fz
:FHF001:   1.ATOM      0.000000000      0.000000000      0.000000000      0.000000000

     HELLMANN-FEYNMAN-FORCE IN mRy/a.u. = |F|  Fx       Fy             Fz
:FHF002:   2.ATOM      0.000000000      0.000000000      0.000000000      0.000000000

     HELLMANN-FEYNMAN-FORCE IN mRy/a.u. = |F|  Fx       Fy             Fz
:FHF003:   3.ATOM    138.344230003      0.000000000      0.000000000    138.344230003

:FIT001: LUSE= 13 SIGMA OF V-XC FIT FOR ATOM  1  0.9015650E-02
:FIT001: LUSE= 13 SIGMA OF V-XC FIT FOR ATOM  1  0.9015650E-02
:FIT002: LUSE= 13 SIGMA OF V-XC FIT FOR ATOM  2  0.1184053E-01
:FIT002: LUSE= 13 SIGMA OF V-XC FIT FOR ATOM  2  0.1184053E-01
:FIT003: LUSE= 13 SIGMA OF V-XC FIT FOR ATOM  3  0.2836440E-03
:FIT003: LUSE= 13 SIGMA OF V-XC FIT FOR ATOM  3  0.2836440E-03
:DEN  : DENSITY INTEGRAL  =         -6252.15126337   (Ry)
       ELS_POTENTIAL_AT Z=0 and Z=0.5:   0.00000   0.00000
       ELS_POTENTIAL_AT Y=0 and Y=0.5:   0.00000   0.00000
:VZERO:v0,v0c,v0x  -0.74266   0.00000  -0.74266 v5,v5c,v5x  -0.74266   0.00000  -0.74266
:VZERY:v0,v0c,v0x  -0.74266   0.00000  -0.74266 v5,v5c,v5x  -0.74266   0.00000  -0.74266
:VZERX:v0,v0c,v0x  -1.72322  -0.65606  -1.06716 v5,v5c,v5x  -0.86200  -0.45896  -0.40304

          ATOMIC SPHERE DEPENDENT PARAMETERS FOR ATOM  Cu1       
:e__0001: OVERALL ENERGY PARAMETER IS    0.3035
          OVERALL BASIS SET ON ATOM IS LAPW
:E1_0001: E( 1)=    0.3035
             APW+lo
:E1_0001: E( 1)=   -4.6960   E(BOTTOM)=   -4.762   E(TOP)=   -4.630  1  2   167
             LOCAL ORBITAL
:E2_0001: E( 2)=    0.2356   E(BOTTOM)=   -0.086   E(TOP)=    0.558  0  1   131
             APW+lo
:E0_0001: E( 0)=    0.3035
             APW+lo

          ATOMIC SPHERE DEPENDENT PARAMETERS FOR ATOM  In1       
:e__0002: OVERALL ENERGY PARAMETER IS    0.3035
          OVERALL BASIS SET ON ATOM IS LAPW
:E2_0002: E( 2)=   -0.6098   E(BOTTOM)=   -1.024   E(TOP)=   -0.195  1  2   138
             APW+lo
:E2_0002: E( 2)=    0.7035
             LOCAL ORBITAL
:E0_0002: E( 0)=    0.3035
             APW+lo
:E1_0002: E( 1)=    0.3035
             APW+lo

          ATOMIC SPHERE DEPENDENT PARAMETERS FOR ATOM  O 1       
:e__0003: OVERALL ENERGY PARAMETER IS    0.3035
          OVERALL BASIS SET ON ATOM IS LAPW
:E0_0003: E( 0)=   -1.5500   E(BOTTOM)=   -2.611   E(TOP)= -200.000  1 -1   233
             APW+lo
:E0_0003: E( 0)=    0.7035
             LOCAL ORBITAL
:E1_0003: E( 1)=    0.3035
             APW+lo

       K=   0.00000   0.00000   0.00000            1
:RKM  : MATRIX SIZE   809LOs:  36  RKM= 6.98  WEIGHT= 1.00  PGR:    
       EIGENVALUES ARE:
:EIG00001:      -4.6925466   -4.6764489   -4.6764489   -1.0122693   -0.9146003
:EIG00006:      -0.5987677   -0.5987677   -0.5877615   -0.5655115   -0.5655115
:EIG00011:      -0.0887040    0.1677032    0.1923361    0.1923361    0.2053186
:EIG00016:       0.2075475    0.2075475    0.2793682    0.2793682    0.3618081
:EIG00021:       0.3618081    0.4351625    0.7272438    0.8184667    1.2366958
:EIG00026:       1.2366958    1.3106140    1.5130771    1.5130771    1.5363900
:EIG00031:       1.5458752    1.5458752    1.5516187    1.7097948    1.8531583
:EIG00036:       1.8531583    1.9446831
       ********************************************************

:KPT   :      NUMBER OF K-POINTS:    32
       Insulator, EF-inconsistency corrected
:GAP  :    0.0513 Ry =     0.698 eV   (provided you have a proper k-mesh)
         Bandranges (emin - emax) and occupancy:
:BAN00011:  11   -0.088704   -0.003342  2.00000000
:BAN00012:  12   -0.056681    0.167703  2.00000000
:BAN00013:  13    0.037717    0.192336  2.00000000
:BAN00014:  14    0.083718    0.192336  2.00000000
:BAN00015:  15    0.130918    0.209024  2.00000000
:BAN00016:  16    0.185352    0.258792  2.00000000
:BAN00017:  17    0.207548    0.283924  2.00000000
:BAN00018:  18    0.275082    0.304417  2.00000000
:BAN00019:  19    0.279235    0.317605  2.00000000
:BAN00020:  20    0.316013    0.370374  2.00000000
:BAN00021:  21    0.328050    0.383826  2.00000000
:BAN00022:  22    0.435162    0.787360  0.00000000
:BAN00023:  23    0.668242    0.789130  0.00000000
:BAN00024:  24    0.783698    1.002955  0.00000000
:BAN00025:  25    0.928799    1.236696  0.00000000
:BAN00026:  26    1.046932    1.252683  0.00000000
        Energy to separate low and high energystates:   -0.13870


:NOE  : NUMBER OF ELECTRONS          =  42.000

:FER  : F E R M I - ENERGY(TETRAH.M.)=   0.3838256322
:GMA  : POTENTIAL AND CHARGE CUT-OFF  12.00 Ry**.5




:POS001: ATOM   -1 X,Y,Z = 0.00000 0.00000 0.00000  MULT= 1  ZZ= 29.000  Cu1       

       LMMAX  7
       LM=   0 0  2 0  4 0  4 3  6 0  6 3  6 6

:CHA001: TOTAL VALENCE CHARGE INSIDE SPHERE   1 =  15.5328    (RMT=  2.0000 )
:PCS001: PARTIAL CHARGES SPHERE =  1 S,P,D,F,PZ,PXY, D-Z2,D-XY,X2Y2,D-XZ,YZ 
:QTL001: 0.2776 6.1474 9.0818 0.0194 2.1200 4.0274 0.0000 1.6417 3.6880 3.7521 0.0000 0.0000
        Q-s-low E-s-low   Q-p-low E-p-low   Q-d-low E-d-low   Q-f-low E-f-low
:EPL001:  0.0251 -0.8701    6.0100 -4.6652    0.0329 -0.8527    0.0040 -0.8820
        Q-s-hi  E-s-hi    Q-p-hi  E-p-hi    Q-d-hi  E-d-hi    Q-f-hi  E-f-hi 
:EPH001:  0.2525  0.1957    0.1374  0.1365    9.0489  0.2764    0.0155  0.1346
:VZZ001: EFG INSIDE SPHERE   1 =    -8.886298      UP TO R =   2.00000




:POS002: ATOM   -2 X,Y,Z = 0.50000 0.50000 0.50000  MULT= 1  ZZ= 49.000  In1       

       LMMAX  7
       LM=   0 0  2 0  4 0  4 3  6 0  6 3  6 6

:CHA002: TOTAL VALENCE CHARGE INSIDE SPHERE   2 =  10.2160    (RMT=  2.1300 )
:PCS002: PARTIAL CHARGES SPHERE =  2 S,P,D,F,PZ,PXY, D-Z2,D-XY,X2Y2,D-XZ,YZ 
:QTL002: 0.3458 0.2661 9.5633 0.0338 0.0773 0.1888 0.0000 1.8964 3.8282 3.8387 0.0000 0.0000
        Q-s-low E-s-low   Q-p-low E-p-low   Q-d-low E-d-low   Q-f-low E-f-low
:EPL002:  0.0311 -0.9484    0.0295 -0.9038    9.2195 -0.5747    0.0042 -0.9023
        Q-s-hi  E-s-hi    Q-p-hi  E-p-hi    Q-d-hi  E-d-hi    Q-f-hi  E-f-hi 
:EPH002:  0.3147 -0.0217    0.2366  0.1059    0.3438  0.1461    0.0295  0.1489
:VZZ002: EFG INSIDE SPHERE   2 =     8.021491      UP TO R =   2.13000




:POS003: ATOM   -3 X,Y,Z = 0.10553 0.10553 0.10553  MULT= 2  ZZ=  8.000  O 1       

       LMMAX 12
       LM=   0 0  1 0  2 0  3 0  3 3  4 0  4 3  5 0  5 3  6 0  6 3  6 6

:CHA003: TOTAL VALENCE CHARGE INSIDE SPHERE   3 =   4.4581    (RMT=  1.4000 )
:PCS003: PARTIAL CHARGES SPHERE =  3 S,P,D,F,PZ,PXY, D-Z2,D-XY,X2Y2,D-XZ,YZ 
:QTL003: 1.3903 3.0600 0.0066 0.0010 1.0087 2.0513 0.0000 0.0016 0.0014 0.0036 0.0000 0.0000
        Q-s-low E-s-low   Q-p-low E-p-low   Q-d-low E-d-low   Q-f-low E-f-low
:EPL003:  1.3418 -0.9286    0.0515 -0.5841    0.0018 -0.7191    0.0003 -0.8881
        Q-s-hi  E-s-hi    Q-p-hi  E-p-hi    Q-d-hi  E-d-hi    Q-f-hi  E-f-hi 
:EPH003:  0.0484  0.0684    3.0085  0.1356    0.0048  0.2154    0.0006  0.2335
:VZZ003: EFG INSIDE SPHERE   3 =     1.414170      UP TO R =   1.40000

:CHA  : TOTAL VALENCE CHARGE INSIDE UNIT CELL =      42.000000

:SUM  : SUM OF EIGENVALUES =         -33.387604337


        1.ATOM      Cu1                   5 CORE STATES
:1S 001: 1S                -649.870045194 Ry
:2S 001: 2S                 -77.546815883 Ry
:2PP001: 2P*                -67.868142901 Ry
:2P 001: 2P                 -66.361425764 Ry
:3S 001: 3S                  -7.816829960 Ry

        2.ATOM      In1                  12 CORE STATES
:1S 002: 1S               -2037.731427467 Ry
:2S 002: 2S                -304.269090030 Ry
:2PP002: 2P*               -283.677575254 Ry
:2P 002: 2P                -268.178652190 Ry
:3S 002: 3S                 -57.045023853 Ry
:3PP002: 3P*                -48.737208020 Ry
:3P 002: 3P                 -45.938482400 Ry
:3DD002: 3D*                -31.248855421 Ry
:3D 002: 3D                 -30.675608989 Ry
:4S 002: 4S                  -7.966231775 Ry
:4PP002: 4P*                 -5.258782449 Ry
:4P 002: 4P                  -4.772792157 Ry

        3.ATOM      O 1                   1 CORE STATES
       CORE-FORCE in mRy/a.u. = |F|      Fx             Fy             Fz
:FCO003:   3.ATOM     61.897585513      0.000000000      0.000000000    -61.897585513

:1S 003: 1S                 -36.646631746 Ry
:CINT001 Core Integral Atom   1   11.998546
:CINT002 Core Integral Atom   2   35.973883
:CINT003 Core Integral Atom   3    1.999999

       DENSITY AT NUCLEUS
        JATOM        VALENCE       SEMI-CORE          CORE           TOTAL
:RTO001:   1        7.926260        0.000000    22632.496386    22640.422646
:RTO002:   2       39.001389        0.000000   236270.928206   236309.929596
:RTO003:   3       14.993355        0.000000      303.814634      318.807988
     
       CHARGES OF NEW CHARGE DENSITY
:NTO   : INTERSTITIAL CHARGE =     7.335025
:NTO001: CHARGE SPHERE  1    =    27.531306
:NTO002: CHARGE SPHERE  2    =    46.189916
:NTO003: CHARGE SPHERE  3    =     6.458078

:NEC01: NUCLEAR AND ELECTRONIC CHARGE     94.00000    93.97240
     
       CHARGES OF OLD CHARGE DENSITY
:OTO   : INTERSTITIAL CHARGE =     7.477611
:OTO001: CHARGE SPHERE  1    =    27.385352
:OTO002: CHARGE SPHERE  2    =    46.230439
:OTO003: CHARGE SPHERE  3    =     6.453299

:NEC02: NUCLEAR AND ELECTRONIC CHARGE     94.00000    94.00000
     
       CONVERGENCE TEST
:DTO001: DIFFERENCE IN SPHERE  1 =  0.6284021
[...]
:PTO010:     -3   -3   -2  3.93916154E-02  1.354E-09  3.219E-09
:PTO011:     -1    0    1  4.97910685E-02  2.327E-09  3.385E-09
:PTO012:     -2   -1    0 -2.93488111E-02 -5.046E-10 -2.033E-09

:ENE  : ********** TOTAL ENERGY IN Ry =       -15377.73893732

       TOTAL FORCE IN mRy/a.u. = |F|     Fx             Fy             Fz     with/without FOR in case.in2
:FOR001:   1.ATOM          0.000          0.000          0.000          0.000 partial forces
:FOR002:   2.ATOM          0.000          0.000          0.000          0.000 partial forces
:FOR003:   3.ATOM          3.885          0.000          0.000          3.885 partial forces
       TOTAL FORCE WITH RESPECT TO GLOBAL CARTESIAN COORDINATES:
:FCA001:   1.ATOM                         0.000          0.000          0.000 partial forces
:FCA002:   2.ATOM                         0.000          0.000          0.000 partial forces
:FCA003:   3.ATOM                         0.000          0.000          3.885 partial forces
       TOTAL FORCE WITH RESPECT TO THE GLOBAL COORDINATE SYSTEM:
:FGL001:   1.ATOM                 0.000000000     0.000000000     0.000000000 partial forces
:FGL002:   2.ATOM                 0.000000000     0.000000000     0.000000000 partial forces
:FGL003:   3.ATOM                 3.884955807     3.884955807     3.884955807 partial forces


            ---------
:ITE024: 24. ITERATION
            ---------

:NATO :    3 INDEPENDENT AND    4 TOTAL ATOMS IN UNITCELL
       SUBSTANCE: CuInO2 ShimodeM00                                           

       LATTICE                      = R   
:POT  : POTENTIAL OPTION EX_PBE EC_PBE VX_PBE VC_PBE
:LAT  : LATTICE CONSTANTS=  6.22095  6.22095 32.85838
:VOL  : UNIT CELL VOLUME =     367.08653
       MODE OF CALCULATION IS       = RELA
       NON-SPINPOLARIZED CALCULATION
:IFFT  : FFT-parameters:   90   90   90 Factor: 2.00
       ATOMNUMBER=  1 Cu1        VCOUL-ZERO =  0.30408E+00
:EFG001:                        EFG         =    -6.15655   *10**21  V / m**2
                               V20  TOT/SRF=    -5.33173     0.20210
                               V22  TOT/SRF=     0.00000     0.00000
                               V22M TOT/SRF=     0.00000     0.00000
                               V21  TOT/SRF=     0.00000     0.00000
                               V21M TOT/SRF=     0.00000     0.00000

              3.07827    0.00000    0.00000        3.07827    0.00000    0.00000
              0.00000    3.07827    0.00000        0.00000    3.07827    0.00000
              0.00000    0.00000   -6.15655        0.00000    0.00000   -6.15655

         MAIN DIRECTIONS OF THE EFG   1.0000  0.0000  0.0000
                                      0.0000  1.0000  0.0000
                                      0.0000  0.0000  1.0000
:ANG001:  ANGLE WITH OLD X-AXIS =         0.0

:ETA001:                         ASYMM. ETA =     0.00000


       ATOMNUMBER=  2 In1        VCOUL-ZERO = -0.56687E-02
:EFG002:                        EFG         =     8.03968   *10**21  V / m**2
                               V20  TOT/SRF=     6.96257    -0.00293
                               V22  TOT/SRF=     0.00000     0.00000
                               V22M TOT/SRF=     0.00000     0.00000
                               V21  TOT/SRF=     0.00000     0.00000
                               V21M TOT/SRF=     0.00000     0.00000

             -4.01984    0.00000    0.00000       -4.01984    0.00000    0.00000
              0.00000   -4.01984    0.00000        0.00000   -4.01984    0.00000
              0.00000    0.00000    8.03968        0.00000    0.00000    8.03968

         MAIN DIRECTIONS OF THE EFG   1.0000  0.0000  0.0000
                                      0.0000  1.0000  0.0000
                                      0.0000  0.0000  1.0000
:ANG002:  ANGLE WITH OLD X-AXIS =         0.0

:ETA002:                         ASYMM. ETA =     0.00000


       ATOMNUMBER=  3 O 1        VCOUL-ZERO =  0.15426E+00
:EFG003:                        EFG         =     1.75024   *10**21  V / m**2
                               V20  TOT/SRF=     1.51576     0.32709
                               V22  TOT/SRF=     0.00000     0.00000
                               V22M TOT/SRF=     0.00000     0.00000
                               V21  TOT/SRF=     0.00000     0.00000
                               V21M TOT/SRF=     0.00000     0.00000

             -0.87512    0.00000    0.00000       -0.87512    0.00000    0.00000
              0.00000   -0.87512    0.00000        0.00000   -0.87512    0.00000
              0.00000    0.00000    1.75024        0.00000    0.00000    1.75024

         MAIN DIRECTIONS OF THE EFG   1.0000  0.0000  0.0000
                                      0.0000  1.0000  0.0000
                                      0.0000  0.0000  1.0000
:ANG003:  ANGLE WITH OLD X-AXIS =         0.0

:ETA003:                         ASYMM. ETA =     0.00000


     HELLMANN-FEYNMAN-FORCE IN mRy/a.u. = |F|  Fx       Fy             Fz
:FHF001:   1.ATOM      0.000000000      0.000000000      0.000000000      0.000000000

     HELLMANN-FEYNMAN-FORCE IN mRy/a.u. = |F|  Fx       Fy             Fz
:FHF002:   2.ATOM      0.000000000      0.000000000      0.000000000      0.000000000

     HELLMANN-FEYNMAN-FORCE IN mRy/a.u. = |F|  Fx       Fy             Fz
:FHF003:   3.ATOM     49.845858858      0.000000000      0.000000000     49.845858858

:FIT001: LUSE= 13 SIGMA OF V-XC FIT FOR ATOM  1  0.8073674E-02
:FIT001: LUSE= 13 SIGMA OF V-XC FIT FOR ATOM  1  0.8073674E-02
:FIT002: LUSE= 13 SIGMA OF V-XC FIT FOR ATOM  2  0.8251642E-02
:FIT002: LUSE= 13 SIGMA OF V-XC FIT FOR ATOM  2  0.8251642E-02
:FIT003: LUSE= 13 SIGMA OF V-XC FIT FOR ATOM  3  0.1252022E-03
:FIT003: LUSE= 13 SIGMA OF V-XC FIT FOR ATOM  3  0.1252022E-03
:DEN  : DENSITY INTEGRAL  =         -6251.15736522   (Ry)
       ELS_POTENTIAL_AT Z=0 and Z=0.5:   0.00000   0.00000
       ELS_POTENTIAL_AT Y=0 and Y=0.5:   0.00000   0.00000
:VZERO:v0,v0c,v0x  -0.73519   0.00000  -0.73519 v5,v5c,v5x  -0.73519   0.00000  -0.73519
:VZERY:v0,v0c,v0x  -0.73519   0.00000  -0.73519 v5,v5c,v5x  -0.73519   0.00000  -0.73519
:VZERX:v0,v0c,v0x  -1.67733  -0.62885  -1.04848 v5,v5c,v5x  -0.84999  -0.46569  -0.38430

          ATOMIC SPHERE DEPENDENT PARAMETERS FOR ATOM  Cu1       
:e__0001: OVERALL ENERGY PARAMETER IS    0.2168
          OVERALL BASIS SET ON ATOM IS LAPW
:E1_0001: E( 1)=    0.2168
             APW+lo
:E1_0001: E( 1)=   -4.6351   E(BOTTOM)=   -4.703   E(TOP)=   -4.567  1  2   170
             LOCAL ORBITAL
:E2_0001: E( 2)=    0.2854   E(BOTTOM)=   -0.048   E(TOP)=    0.619  0  1   132
             APW+lo
:E0_0001: E( 0)=    0.2168
             APW+lo

          ATOMIC SPHERE DEPENDENT PARAMETERS FOR ATOM  In1       
:e__0002: OVERALL ENERGY PARAMETER IS    0.2168
          OVERALL BASIS SET ON ATOM IS LAPW
:E2_0002: E( 2)=   -0.6405   E(BOTTOM)=   -1.052   E(TOP)=   -0.229  1  2   144
             APW+lo
:E2_0002: E( 2)=    0.6168
             LOCAL ORBITAL
:E0_0002: E( 0)=    0.2168
             APW+lo
:E1_0002: E( 1)=    0.2168
             APW+lo

          ATOMIC SPHERE DEPENDENT PARAMETERS FOR ATOM  O 1       
:e__0003: OVERALL ENERGY PARAMETER IS    0.2168
          OVERALL BASIS SET ON ATOM IS LAPW
:E0_0003: E( 0)=   -1.5500   E(BOTTOM)=   -2.632   E(TOP)= -200.000  1 -1   233
             APW+lo
:E0_0003: E( 0)=    0.6168
             LOCAL ORBITAL
:E1_0003: E( 1)=    0.2168
             APW+lo

       K=   0.00000   0.00000   0.00000            1
:RKM  : MATRIX SIZE   809LOs:  36  RKM= 6.98  WEIGHT= 1.00  PGR:    
       EIGENVALUES ARE:
:EIG00001:      -4.6337760   -4.6136971   -4.6136971   -1.0216009   -0.9249925
:EIG00006:      -0.6258820   -0.6258820   -0.6162845   -0.5953303   -0.5953303
:EIG00011:      -0.0926283    0.1577684    0.1954164    0.1954164    0.1992466
:EIG00016:       0.1992466    0.2178129    0.3275338    0.3275338    0.3899270
:EIG00021:       0.3899270    0.4472868    0.7207003    0.8170348    1.2287865
:EIG00026:       1.2287865    1.3073821    1.5125777    1.5125777    1.5281488
:EIG00031:       1.5435343    1.5435343    1.5473401    1.7078357    1.8498643
:EIG00036:       1.8498643
       ********************************************************

:KPT   :      NUMBER OF K-POINTS:    32
       Insulator, EF-inconsistency corrected
:GAP  :    0.0305 Ry =     0.415 eV   (provided you have a proper k-mesh)
         Bandranges (emin - emax) and occupancy:
:BAN00011:  11   -0.092628   -0.012888  2.00000000
:BAN00012:  12   -0.058876    0.157768  2.00000000
:BAN00013:  13    0.029979    0.195416  2.00000000
:BAN00014:  14    0.081130    0.195416  2.00000000
:BAN00015:  15    0.121114    0.222249  2.00000000
:BAN00016:  16    0.186580    0.248925  2.00000000
:BAN00017:  17    0.217813    0.330632  2.00000000
:BAN00018:  18    0.320782    0.353481  2.00000000
:BAN00019:  19    0.327370    0.356417  2.00000000
:BAN00020:  20    0.356620    0.396505  2.00000000
:BAN00021:  21    0.365694    0.416750  2.00000000
:BAN00022:  22    0.447287    0.782551  0.00000000
:BAN00023:  23    0.681245    0.783081  0.00000000
:BAN00024:  24    0.769501    0.997264  0.00000000
:BAN00025:  25    0.926641    1.228786  0.00000000
:BAN00026:  26    1.040106    1.250002  0.00000000
        Energy to separate low and high energystates:   -0.14263


:NOE  : NUMBER OF ELECTRONS          =  42.000

:FER  : F E R M I - ENERGY(TETRAH.M.)=   0.4167500233
:GMA  : POTENTIAL AND CHARGE CUT-OFF  12.00 Ry**.5




:POS001: ATOM   -1 X,Y,Z = 0.00000 0.00000 0.00000  MULT= 1  ZZ= 29.000  Cu1       

       LMMAX  7
       LM=   0 0  2 0  4 0  4 3  6 0  6 3  6 6

:CHA001: TOTAL VALENCE CHARGE INSIDE SPHERE   1 =  15.3800    (RMT=  2.0000 )
:PCS001: PARTIAL CHARGES SPHERE =  1 S,P,D,F,PZ,PXY, D-Z2,D-XY,X2Y2,D-XZ,YZ 
:QTL001: 0.2829 6.1459 8.9253 0.0194 2.1174 4.0285 0.0000 1.5561 3.6447 3.7245 0.0000 0.0000
        Q-s-low E-s-low   Q-p-low E-p-low   Q-d-low E-d-low   Q-f-low E-f-low
:EPL001:  0.0243 -0.8853    6.0087 -4.6045    0.0306 -0.8725    0.0039 -0.8953
        Q-s-hi  E-s-hi    Q-p-hi  E-p-hi    Q-d-hi  E-d-hi    Q-f-hi  E-f-hi 
:EPH001:  0.2586  0.2038    0.1372  0.1322    8.8947  0.3227    0.0155  0.1262
:VZZ001: EFG INSIDE SPHERE   1 =    -6.508850      UP TO R =   2.00000




:POS002: ATOM   -2 X,Y,Z = 0.50000 0.50000 0.50000  MULT= 1  ZZ= 49.000  In1       

       LMMAX  7
       LM=   0 0  2 0  4 0  4 3  6 0  6 3  6 6

:CHA002: TOTAL VALENCE CHARGE INSIDE SPHERE   2 =  10.2301    (RMT=  2.1300 )
:PCS002: PARTIAL CHARGES SPHERE =  2 S,P,D,F,PZ,PXY, D-Z2,D-XY,X2Y2,D-XZ,YZ 
:QTL002: 0.3491 0.2652 9.5752 0.0336 0.0769 0.1882 0.0000 1.8991 3.8331 3.8431 0.0000 0.0000
        Q-s-low E-s-low   Q-p-low E-p-low   Q-d-low E-d-low   Q-f-low E-f-low
:EPL002:  0.0308 -0.9610    0.0292 -0.9168    9.2519 -0.6035    0.0042 -0.9144
        Q-s-hi  E-s-hi    Q-p-hi  E-p-hi    Q-d-hi  E-d-hi    Q-f-hi  E-f-hi 
:EPH002:  0.3183 -0.0268    0.2360  0.0971    0.3233  0.1379    0.0294  0.1399
:VZZ002: EFG INSIDE SPHERE   2 =     8.077600      UP TO R =   2.13000




:POS003: ATOM   -3 X,Y,Z = 0.10553 0.10553 0.10553  MULT= 2  ZZ=  8.000  O 1       

       LMMAX 12
       LM=   0 0  1 0  2 0  3 0  3 3  4 0  4 3  5 0  5 3  6 0  6 3  6 6

:CHA003: TOTAL VALENCE CHARGE INSIDE SPHERE   3 =   4.4968    (RMT=  1.4000 )
:PCS003: PARTIAL CHARGES SPHERE =  3 S,P,D,F,PZ,PXY, D-Z2,D-XY,X2Y2,D-XZ,YZ 
:QTL003: 1.3944 3.0944 0.0068 0.0010 1.0215 2.0729 0.0000 0.0015 0.0014 0.0039 0.0000 0.0000
        Q-s-low E-s-low   Q-p-low E-p-low   Q-d-low E-d-low   Q-f-low E-f-low
:EPL003:  1.3473 -0.9387    0.0478 -0.6135    0.0017 -0.7537    0.0003 -0.9240
        Q-s-hi  E-s-hi    Q-p-hi  E-p-hi    Q-d-hi  E-d-hi    Q-f-hi  E-f-hi 
:EPH003:  0.0471  0.0599    3.0466  0.1248    0.0051  0.2506    0.0007  0.2729
:VZZ003: EFG INSIDE SPHERE   3 =     1.326341      UP TO R =   1.40000

:CHA  : TOTAL VALENCE CHARGE INSIDE UNIT CELL =      42.000000

:SUM  : SUM OF EIGENVALUES =         -33.019881019


        1.ATOM      Cu1                   5 CORE STATES
:1S 001: 1S                -649.715666144 Ry
:2S 001: 2S                 -77.406836618 Ry
:2PP001: 2P*                -67.724489691 Ry
:2P 001: 2P                 -66.218165878 Ry
:3S 001: 3S                  -7.752059014 Ry

        2.ATOM      In1                  12 CORE STATES
:1S 002: 1S               -2037.827464576 Ry
:2S 002: 2S                -304.354019148 Ry
:2PP002: 2P*               -283.764493362 Ry
:2P 002: 2P                -268.265024412 Ry
:3S 002: 3S                 -57.112244710 Ry
:3PP002: 3P*                -48.805103098 Ry
:3P 002: 3P                 -46.005627944 Ry
:3DD002: 3D*                -31.317933532 Ry
:3D 002: 3D                 -30.744434639 Ry
:4S 002: 4S                  -8.006110852 Ry
:4PP002: 4P*                 -5.296728578 Ry
:4P 002: 4P                  -4.809594609 Ry

        3.ATOM      O 1                   1 CORE STATES
       CORE-FORCE in mRy/a.u. = |F|      Fx             Fy             Fz
:FCO003:   3.ATOM     45.960229490      0.000000000      0.000000000    -45.960229490

:1S 003: 1S                 -36.774816541 Ry
:CINT001 Core Integral Atom   1   11.998493
:CINT002 Core Integral Atom   2   35.974216
:CINT003 Core Integral Atom   3    1.999999

       DENSITY AT NUCLEUS
        JATOM        VALENCE       SEMI-CORE          CORE           TOTAL
:RTO001:   1        8.120350        0.000000    22630.673755    22638.794106
:RTO002:   2       39.472097        0.000000   236274.552742   236314.024839
:RTO003:   3       15.069132        0.000000      304.065157      319.134290
     
       CHARGES OF NEW CHARGE DENSITY
:NTO   : INTERSTITIAL CHARGE =     7.396156
:NTO001: CHARGE SPHERE  1    =    27.378512
:NTO002: CHARGE SPHERE  2    =    46.204320
:NTO003: CHARGE SPHERE  3    =     6.496847

:NEC01: NUCLEAR AND ELECTRONIC CHARGE     94.00000    93.97268
     
       CHARGES OF OLD CHARGE DENSITY
:OTO   : INTERSTITIAL CHARGE =     7.423473
:OTO001: CHARGE SPHERE  1    =    27.378512
:OTO002: CHARGE SPHERE  2    =    46.204320
:OTO003: CHARGE SPHERE  3    =     6.496847

:NEC02: NUCLEAR AND ELECTRONIC CHARGE     94.00000    94.00000
     
       CONVERGENCE TEST
:DTO001: DIFFERENCE IN SPHERE  1 =  0.0000002
:DTO002: DIFFERENCE IN SPHERE  2 =  0.0000001
:DTO003: DIFFERENCE IN SPHERE  3 =  0.0000001

:DIS  :  CHARGE DISTANCE       ( 0.0000002 for atom    1 spin 1)      0.0000001
:BIG check (qbig,qrms,qtot)    0.533D-07   0.719D-07   0.944D-07
 
******************************************************
* MULTISECANT MIXING VER6 RELEASE 6.0 OPTIONS        *
* Standard Mode with controls                        *
* Regularization       1.000E-06                     *
* Trust Region Control Active                        *
* Max Number of Memory Steps    8                    *
******************************************************
 
:PLANE:  INTERSTITIAL TOTAL      1.80581 DISTAN  1.702E-06 % 
:CHARG:  CLM CHARGE   /ATOM    107.21792 DISTAN  1.369E-07 % 
 
 Step History DMIX, Red, Pred, Trust, FRMS, FABS
 17  2.0000E-01  4.6391E-01  8.3115E-01  4.2060E+00
 18  2.0000E-01  5.2495E-01  7.9580E-01  4.2959E+00
 19  2.0000E-01  4.9633E-01  7.0563E-01  4.5051E+00
 20  2.0000E-01  4.7066E-01  6.6596E-01  4.1520E+00
 21  2.0000E-01  5.8143E-01  9.3469E-01  4.7459E+00
 22  2.0000E-01  3.0054E-01  4.3480E-01  4.9486E+00
 23  2.0000E-01  5.8449E-01  8.7488E-01  4.9980E+00
 24  2.0000E-01  1.0000E+00  6.0785E-01  5.0865E+00
  
:NORMS:  Nuclear, Spectral, Froebius, Shanno-Pua   0.1262E+01  0.1016E+01  0.1191E+01  0.7998E+00
:INFO :  Number of Memory Steps    8 Skipping   15
:INFO :  SLambda=    1.3333333  Max    1.3333333

Eigenvalues, unscaled except for SY+YY
   #     SY Real        SY Imag          SS             YY         SY+YY Real      SY+YY Imag
   1   2.814954E+00   0.000000E+00   2.965858E+00   3.064390E+00   6.722009E+00   0.000000E+00
   2   1.619718E+00   0.000000E+00   1.398426E+00   2.068851E+00   4.242214E+00   0.000000E+00
   3   8.680528E-01   0.000000E+00   6.435565E-01   1.596676E+00   2.774909E+00   0.000000E+00
   4   5.462625E-01   0.000000E+00   3.836752E-01   7.207077E-01   1.499852E+00   0.000000E+00
   5   1.708982E-01   0.000000E+00   1.197612E-01   3.108815E-01   5.451951E-01   0.000000E+00
   6   2.494269E-04   0.000000E+00   8.503342E-02   1.524624E-01   7.022253E-04   0.000000E+00
   7   8.015583E-02   0.000000E+00   4.765731E-02   8.567719E-02   1.935344E-01   0.000000E+00
   8   8.697753E-02   0.000000E+00   2.140829E-04   3.542192E-04   2.712759E-01   0.000000E+00
 
:INFO :  Singular value   6.729E+00 Weight  1.0000E+00 Projections  -6.188E-07  7.582E-08
:INFO :  Singular value   4.252E+00 Weight  1.0000E+00 Projections  -1.561E-06  4.773E-08
:INFO :  Singular value   2.775E+00 Weight  1.0000E+00 Projections   6.040E-06  1.354E-08
:INFO :  Singular value   1.500E+00 Weight  1.0000E+00 Projections  -8.151E-06  1.126E-07
:INFO :  Singular value   5.466E-01 Weight  1.0000E+00 Projections   1.237E-05 -1.982E-07
:INFO :  Singular value   2.713E-01 Weight  1.0000E+00 Projections  -9.930E-06  2.824E-07
:INFO :  Singular value   1.924E-01 Weight  1.0000E+00 Projections   3.463E-06 -2.499E-07
:INFO :  Singular value   7.022E-04 Weight  9.9998E-01 Projections  -2.068E-06  1.933E-05
 
:DIRM :  MEMORY 8/8 RESCALE  15.13 RED 0.433 PRED 0.608 NEXT 0.837
:INFO :  Blimit    4.988E+00  1.312E+00  1.000E+00  5.247E+00
:DIRP :  |MSR1|= 3.129E-07 |PRATT|= 4.649E-07 ANGLE=  30.7 DEGREES
:DIRQ :  |MSR1|= 0.000E+00 |PRATT|= 0.000E+00 ANGLE=   0.0 DEGREES
:DIR  :  |MSR1|= 4.172E-07 |PRATT|= 6.403E-07 ANGLE=  32.0 DEGREES
:MIX  :   MSE1   REGULARIZATION: 3.06E-06  GREED: 0.200  Newton 1.00  0.65                
     
       CHARGES OF MIXED CHARGE DENSITY
:CTO   : INTERSTITIAL CHARGE =     7.423473
:CTO001: CHARGE SPHERE  1    =    27.378512
:CTO002: CHARGE SPHERE  2    =    46.204320
:CTO003: CHARGE SPHERE  3    =     6.496847

:NEC03: NUCLEAR AND ELECTRONIC CHARGE     94.00000    94.00000

PW CHANGE     H    K    L       Current     Change     Residue
:PTO001:      0    0    0  5.61004664E-02  7.390E-11  1.992E-10
:PTO002:     -1   -1   -1 -2.54346979E-02  8.827E-11  5.273E-10
:PTO003:     -2   -2   -2 -4.33741323E-03  2.456E-11 -2.469E-11
:PTO004:     -1    0    0  8.21332975E-02  9.541E-10  6.976E-10
:PTO005:     -1   -1    0  7.66351235E-02  1.606E-11  1.129E-10
:PTO006:     -2   -1   -1 -4.23652541E-02 -7.496E-10 -5.983E-10
:PTO007:     -2   -2   -1 -8.03881979E-02 -6.571E-10 -5.361E-10
:PTO008:     -3   -3   -3  2.15694968E-02  3.593E-10  4.269E-10
:PTO009:     -3   -2   -2 -1.42417813E-03  3.742E-10  6.248E-10
:PTO010:     -3   -3   -2  3.93916163E-02  9.312E-10  9.943E-10
:PTO011:     -1    0    1  4.97910693E-02  8.138E-10  1.069E-09
:PTO012:     -2   -1    0 -2.93488119E-02 -7.298E-10 -1.359E-09

:ENE  : ********** TOTAL ENERGY IN Ry =       -15377.73893732

       TOTAL FORCE IN mRy/a.u. = |F|     Fx             Fy             Fz     with/without FOR in case.in2
:FOR001:   1.ATOM          0.000          0.000          0.000          0.000 partial forces
:FOR002:   2.ATOM          0.000          0.000          0.000          0.000 partial forces
:FOR003:   3.ATOM          3.886          0.000          0.000          3.886 partial forces
       TOTAL FORCE WITH RESPECT TO GLOBAL CARTESIAN COORDINATES:
:FCA001:   1.ATOM                         0.000          0.000          0.000 partial forces
:FCA002:   2.ATOM                         0.000          0.000          0.000 partial forces
:FCA003:   3.ATOM                         0.000          0.000          3.886 partial forces
       TOTAL FORCE WITH RESPECT TO THE GLOBAL COORDINATE SYSTEM:
:FGL001:   1.ATOM                 0.000000000     0.000000000     0.000000000 partial forces
:FGL002:   2.ATOM                 0.000000000     0.000000000     0.000000000 partial forces
:FGL003:   3.ATOM                 3.885629368     3.885629368     3.885629368 partial forces
