   4   4   0   0
  0.9829158E+01  0.5862275E-09  0.5862275E-09  0.5862275E-09  0.5000000E-15
  1.000000000000000E-004
  CAR 
 unknown system                          
     42.50224916   -112.51127111  301      6.91372846      1.00000000
   -112.511  0.0000E+00  0.0000E+00
   -111.995  0.0000E+00  0.0000E+00
   -111.478  0.0000E+00  0.0000E+00
   -110.961  0.0000E+00  0.0000E+00
   -110.444  0.0000E+00  0.0000E+00
   -109.928  0.0000E+00  0.0000E+00
   -109.411  0.0000E+00  0.0000E+00
   -108.894  0.0000E+00  0.0000E+00
   -108.378  0.0000E+00  0.0000E+00
   -107.861  0.0000E+00  0.0000E+00
   -107.344  0.0000E+00  0.0000E+00
   -106.827  0.0000E+00  0.0000E+00
   -106.311  0.4347E-08  0.2246E-08
   -105.794  0.3882E-01  0.2006E-01
   -105.277  0.3476E+01  0.1816E+01
   -104.761  0.3561E+00  0.2000E+01
   -104.244  0.1217E-05  0.2000E+01
   -103.727  0.0000E+00  0.2000E+01
   -103.210  0.0000E+00  0.2000E+01
   -102.694  0.0000E+00  0.2000E+01
   -102.177  0.0000E+00  0.2000E+01
   -101.660  0.0000E+00  0.2000E+01
   -101.144  0.0000E+00  0.2000E+01
   -100.627  0.0000E+00  0.2000E+01
   -100.110  0.0000E+00  0.2000E+01
    -99.593  0.0000E+00  0.2000E+01
    -99.077  0.0000E+00  0.2000E+01
    -98.560  0.0000E+00  0.2000E+01
    -98.043  0.0000E+00  0.2000E+01
    -97.527  0.0000E+00  0.2000E+01
    -97.010  0.0000E+00  0.2000E+01
    -96.493  0.0000E+00  0.2000E+01
    -95.976  0.0000E+00  0.2000E+01
    -95.460  0.0000E+00  0.2000E+01
    -94.943  0.0000E+00  0.2000E+01
    -94.426  0.0000E+00  0.2000E+01
    -93.910  0.0000E+00  0.2000E+01
    -93.393  0.0000E+00  0.2000E+01
    -92.876  0.0000E+00  0.2000E+01
    -92.360  0.0000E+00  0.2000E+01
    -91.843  0.0000E+00  0.2000E+01
    -91.326  0.0000E+00  0.2000E+01
    -90.809  0.0000E+00  0.2000E+01
    -90.293  0.0000E+00  0.2000E+01
    -89.776  0.0000E+00  0.2000E+01
    -89.259  0.0000E+00  0.2000E+01
    -88.743  0.0000E+00  0.2000E+01
    -88.226  0.0000E+00  0.2000E+01
    -87.709  0.0000E+00  0.2000E+01
    -87.192  0.0000E+00  0.2000E+01
    -86.676  0.0000E+00  0.2000E+01
    -86.159  0.0000E+00  0.2000E+01
    -85.642  0.0000E+00  0.2000E+01
    -85.126  0.0000E+00  0.2000E+01
    -84.609  0.0000E+00  0.2000E+01
    -84.092  0.0000E+00  0.2000E+01
    -83.575  0.0000E+00  0.2000E+01
    -83.059  0.0000E+00  0.2000E+01
    -82.542  0.0000E+00  0.2000E+01
    -82.025  0.0000E+00  0.2000E+01
    -81.509  0.0000E+00  0.2000E+01
    -80.992  0.0000E+00  0.2000E+01
    -80.475  0.0000E+00  0.2000E+01
    -79.958  0.0000E+00  0.2000E+01
    -79.442  0.0000E+00  0.2000E+01
    -78.925  0.0000E+00  0.2000E+01
    -78.408  0.0000E+00  0.2000E+01
    -77.892  0.0000E+00  0.2000E+01
    -77.375  0.0000E+00  0.2000E+01
    -76.858  0.0000E+00  0.2000E+01
    -76.341  0.0000E+00  0.2000E+01
    -75.825  0.0000E+00  0.2000E+01
    -75.308  0.0000E+00  0.2000E+01
    -74.791  0.0000E+00  0.2000E+01
    -74.275  0.0000E+00  0.2000E+01
    -73.758  0.0000E+00  0.2000E+01
    -73.241  0.0000E+00  0.2000E+01
    -72.724  0.0000E+00  0.2000E+01
    -72.208  0.0000E+00  0.2000E+01
    -71.691  0.0000E+00  0.2000E+01
    -71.174  0.0000E+00  0.2000E+01
    -70.658  0.0000E+00  0.2000E+01
    -70.141  0.0000E+00  0.2000E+01
    -69.624  0.0000E+00  0.2000E+01
    -69.107  0.0000E+00  0.2000E+01
    -68.591  0.0000E+00  0.2000E+01
    -68.074  0.0000E+00  0.2000E+01
    -67.557  0.0000E+00  0.2000E+01
    -67.041  0.0000E+00  0.2000E+01
    -66.524  0.0000E+00  0.2000E+01
    -66.007  0.0000E+00  0.2000E+01
    -65.491  0.0000E+00  0.2000E+01
    -64.974  0.0000E+00  0.2000E+01
    -64.457  0.0000E+00  0.2000E+01
    -63.940  0.6431E-07  0.2000E+01
    -63.424  0.1237E+00  0.2064E+01
    -62.907  0.8715E+01  0.6567E+01
    -62.390  0.2773E+01  0.8000E+01
    -61.874  0.1862E-03  0.8000E+01
    -61.357  0.0000E+00  0.8000E+01
    -60.840  0.0000E+00  0.8000E+01
    -60.323  0.0000E+00  0.8000E+01
    -59.807  0.0000E+00  0.8000E+01
    -59.290  0.0000E+00  0.8000E+01
    -58.773  0.0000E+00  0.8000E+01
    -58.257  0.0000E+00  0.8000E+01
    -57.740  0.0000E+00  0.8000E+01
    -57.223  0.0000E+00  0.8000E+01
    -56.706  0.0000E+00  0.8000E+01
    -56.190  0.0000E+00  0.8000E+01
    -55.673  0.0000E+00  0.8000E+01
    -55.156  0.0000E+00  0.8000E+01
    -54.640  0.0000E+00  0.8000E+01
    -54.123  0.0000E+00  0.8000E+01
    -53.606  0.0000E+00  0.8000E+01
    -53.089  0.0000E+00  0.8000E+01
    -52.573  0.0000E+00  0.8000E+01
    -52.056  0.0000E+00  0.8000E+01
    -51.539  0.0000E+00  0.8000E+01
    -51.023  0.0000E+00  0.8000E+01
    -50.506  0.0000E+00  0.8000E+01
    -49.989  0.0000E+00  0.8000E+01
    -49.472  0.0000E+00  0.8000E+01
    -48.956  0.0000E+00  0.8000E+01
    -48.439  0.0000E+00  0.8000E+01
    -47.922  0.0000E+00  0.8000E+01
    -47.406  0.0000E+00  0.8000E+01
    -46.889  0.0000E+00  0.8000E+01
    -46.372  0.0000E+00  0.8000E+01
    -45.855  0.0000E+00  0.8000E+01
    -45.339  0.0000E+00  0.8000E+01
    -44.822  0.0000E+00  0.8000E+01
    -44.305  0.0000E+00  0.8000E+01
    -43.789  0.0000E+00  0.8000E+01
    -43.272  0.0000E+00  0.8000E+01
    -42.755  0.0000E+00  0.8000E+01
    -42.238  0.0000E+00  0.8000E+01
    -41.722  0.0000E+00  0.8000E+01
    -41.205  0.0000E+00  0.8000E+01
    -40.688  0.0000E+00  0.8000E+01
    -40.172  0.0000E+00  0.8000E+01
    -39.655  0.0000E+00  0.8000E+01
    -39.138  0.0000E+00  0.8000E+01
    -38.621  0.0000E+00  0.8000E+01
    -38.105  0.0000E+00  0.8000E+01
    -37.588  0.0000E+00  0.8000E+01
    -37.071  0.0000E+00  0.8000E+01
    -36.555  0.0000E+00  0.8000E+01
    -36.038  0.0000E+00  0.8000E+01
    -35.521  0.0000E+00  0.8000E+01
    -35.005  0.0000E+00  0.8000E+01
    -34.488  0.0000E+00  0.8000E+01
    -33.971  0.0000E+00  0.8000E+01
    -33.454  0.0000E+00  0.8000E+01
    -32.938  0.0000E+00  0.8000E+01
    -32.421  0.0000E+00  0.8000E+01
    -31.904  0.0000E+00  0.8000E+01
    -31.388  0.0000E+00  0.8000E+01
    -30.871  0.0000E+00  0.8000E+01
    -30.354  0.0000E+00  0.8000E+01
    -29.837  0.0000E+00  0.8000E+01
    -29.321  0.0000E+00  0.8000E+01
    -28.804  0.0000E+00  0.8000E+01
    -28.287  0.0000E+00  0.8000E+01
    -27.771  0.0000E+00  0.8000E+01
    -27.254  0.0000E+00  0.8000E+01
    -26.737  0.0000E+00  0.8000E+01
    -26.220  0.0000E+00  0.8000E+01
    -25.704  0.0000E+00  0.8000E+01
    -25.187  0.0000E+00  0.8000E+01
    -24.670  0.0000E+00  0.8000E+01
    -24.154  0.0000E+00  0.8000E+01
    -23.637  0.0000E+00  0.8000E+01
    -23.120  0.0000E+00  0.8000E+01
    -22.603  0.0000E+00  0.8000E+01
    -22.087  0.0000E+00  0.8000E+01
    -21.570  0.0000E+00  0.8000E+01
    -21.053  0.0000E+00  0.8000E+01
    -20.537  0.0000E+00  0.8000E+01
    -20.020  0.0000E+00  0.8000E+01
    -19.503  0.0000E+00  0.8000E+01
    -18.986  0.0000E+00  0.8000E+01
    -18.470  0.0000E+00  0.8000E+01
    -17.953  0.0000E+00  0.8000E+01
    -17.436  0.0000E+00  0.8000E+01
    -16.920  0.0000E+00  0.8000E+01
    -16.403  0.0000E+00  0.8000E+01
    -15.886  0.0000E+00  0.8000E+01
    -15.369  0.0000E+00  0.8000E+01
    -14.853  0.0000E+00  0.8000E+01
    -14.336  0.2456E-13  0.8000E+01
    -13.819  0.8879E-04  0.8000E+01
    -13.303  0.1296E+01  0.8670E+01
    -12.786  0.5989E+01  0.1176E+02
    -12.269  0.4559E+00  0.1200E+02
    -11.752  0.2480E-05  0.1200E+02
    -11.236  0.0000E+00  0.1200E+02
    -10.719  0.0000E+00  0.1200E+02
    -10.202  0.0000E+00  0.1200E+02
     -9.686  0.0000E+00  0.1200E+02
     -9.169  0.0000E+00  0.1200E+02
     -8.652  0.0000E+00  0.1200E+02
     -8.136  0.0000E+00  0.1200E+02
     -7.619  0.0000E+00  0.1200E+02
     -7.102  0.0000E+00  0.1200E+02
     -6.585  0.0000E+00  0.1200E+02
     -6.069  0.0000E+00  0.1200E+02
     -5.552  0.0000E+00  0.1200E+02
     -5.035  0.0000E+00  0.1200E+02
     -4.519  0.0000E+00  0.1200E+02
     -4.002  0.0000E+00  0.1200E+02
     -3.485  0.0000E+00  0.1200E+02
     -2.968  0.6149E-07  0.1200E+02
     -2.452  0.9430E-01  0.1205E+02
     -1.935  0.3553E+01  0.1388E+02
     -1.418  0.4201E+00  0.1410E+02
     -0.902  0.3578E+01  0.1595E+02
     -0.385  0.1186E+01  0.1656E+02
      0.132  0.2762E+01  0.1799E+02
      0.649  0.2769E-01  0.1801E+02
      1.165  0.4747E+01  0.2046E+02
      1.682  0.3687E+01  0.2236E+02
      2.199  0.3157E+01  0.2399E+02
      2.715  0.1195E-01  0.2400E+02
      3.232  0.9647E-01  0.2405E+02
      3.749  0.3574E+01  0.2590E+02
      4.266  0.3701E+01  0.2781E+02
      4.782  0.6543E+01  0.3119E+02
      5.299  0.1568E+01  0.3200E+02
      5.816  0.1573E+01  0.3281E+02
      6.332  0.2297E+01  0.3400E+02
      6.849  0.1230E-02  0.3400E+02
      7.366  0.3020E-11  0.3400E+02
      7.883  0.0000E+00  0.3400E+02
      8.399  0.7267E-12  0.3400E+02
      8.916  0.2078E-03  0.3400E+02
      9.433  0.9509E+00  0.3449E+02
      9.949  0.2883E+01  0.3598E+02
     10.466  0.3654E-01  0.3600E+02
     10.983  0.4922E-07  0.3600E+02
     11.500  0.5506E-11  0.3600E+02
     12.016  0.8659E-03  0.3600E+02
     12.533  0.1844E+01  0.3695E+02
     13.050  0.2025E+01  0.3800E+02
     13.566  0.1140E-02  0.3800E+02
     14.083  0.5258E-11  0.3800E+02
     14.600  0.5850E-04  0.3800E+02
     15.117  0.7053E+00  0.3836E+02
     15.633  0.5409E+01  0.4116E+02
     16.150  0.4648E+01  0.4356E+02
     16.667  0.8493E+00  0.4400E+02
     17.183  0.3355E-03  0.4400E+02
     17.700  0.8097E+00  0.4442E+02
     18.217  0.4318E+01  0.4665E+02
     18.734  0.4330E+01  0.4889E+02
     19.250  0.2153E+01  0.5000E+02
     19.767  0.1565E-02  0.5000E+02
     20.284  0.1113E-10  0.5000E+02
     20.800  0.4173E-07  0.5000E+02
     21.317  0.8898E-01  0.5005E+02
     21.834  0.3579E+01  0.5190E+02
     22.350  0.5696E+00  0.5219E+02
     22.867  0.3377E+01  0.5393E+02
     23.384  0.1265E+00  0.5400E+02
     23.901  0.7502E-05  0.5400E+02
     24.417  0.5259E-01  0.5403E+02
     24.934  0.2717E+01  0.5543E+02
     25.451  0.1100E+01  0.5600E+02
     25.967  0.2343E-03  0.5600E+02
     26.484  0.1910E-08  0.5600E+02
     27.001  0.5980E-02  0.5600E+02
     27.518  0.1770E+01  0.5692E+02
     28.034  0.5009E+01  0.5951E+02
     28.551  0.9670E+00  0.6001E+02
     29.068  0.2162E+01  0.6112E+02
     29.584  0.2709E+01  0.6252E+02
     30.101  0.1952E+01  0.6353E+02
     30.618  0.8745E+00  0.6398E+02
     31.135  0.3264E-01  0.6400E+02
     31.651  0.1032E-02  0.6400E+02
     32.168  0.1676E+01  0.6487E+02
     32.685  0.2189E+01  0.6600E+02
     33.201  0.1169E+01  0.6660E+02
     33.718  0.5873E+01  0.6964E+02
     34.235  0.7120E+00  0.7000E+02
     34.752  0.8776E+00  0.7046E+02
     35.268  0.2503E+01  0.7175E+02
     35.785  0.4805E+00  0.7200E+02
     36.302  0.7951E-03  0.7200E+02
     36.818  0.7226E-10  0.7200E+02
     37.335  0.0000E+00  0.7200E+02
     37.852  0.0000E+00  0.7200E+02
     38.369  0.0000E+00  0.7200E+02
     38.885  0.0000E+00  0.7200E+02
     39.402  0.0000E+00  0.7200E+02
     39.919  0.0000E+00  0.7200E+02
     40.435  0.0000E+00  0.7200E+02
     40.952  0.0000E+00  0.7200E+02
     41.469  0.0000E+00  0.7200E+02
     41.986  0.0000E+00  0.7200E+02
     42.502  0.0000E+00  0.7200E+02
