       N       E                     dE             d eps       ncg     rms          rms(c)
DAV:   1     0.320440488489E+03    0.32044E+03   -0.17906E+04  6516   0.321E+03
DAV:   2    -0.104345975306E+02   -0.33088E+03   -0.31167E+03  7068   0.753E+02
DAV:   3    -0.286739515689E+02   -0.18239E+02   -0.18194E+02  7020   0.163E+02
DAV:   4    -0.291896134105E+02   -0.51566E+00   -0.51559E+00  6216   0.168E+01
DAV:   5    -0.292090784691E+02   -0.19465E-01   -0.19465E-01  5712   0.323E+00
RMM:   6    -0.292100310985E+02   -0.95263E-03   -0.95263E-03  7460   0.112E+00
RMM:   7    -0.292103801917E+02   -0.34909E-03   -0.29456E-03  6738   0.814E-01
RMM:   8    -0.292104840339E+02   -0.10384E-03   -0.82946E-04  6689   0.600E-01
RMM:   9    -0.292105247684E+02   -0.40734E-04   -0.31398E-04  6518   0.422E-01
RMM:  10    -0.292105507592E+02   -0.25991E-04   -0.23181E-04  6501   0.278E-01
RMM:  11    -0.292105625468E+02   -0.11788E-04   -0.79761E-05  6216   0.237E-01
RMM:  12    -0.292105682927E+02   -0.57459E-05   -0.48875E-05  6056   0.143E-01
RMM:  13    -0.292105712075E+02   -0.29148E-05   -0.21013E-05  5758   0.110E-01
RMM:  14    -0.292105731994E+02   -0.19919E-05   -0.16434E-05  5517   0.773E-02
RMM:  15    -0.292105740642E+02   -0.86476E-06   -0.51563E-06  5134   0.637E-02
RMM:  16    -0.292105745368E+02   -0.47260E-06   -0.40129E-06  5031   0.415E-02
RMM:  17    -0.292105748076E+02   -0.27076E-06   -0.17462E-06  4802   0.360E-02
RMM:  18    -0.292105749807E+02   -0.17315E-06   -0.13937E-06  4714   0.262E-02
RMM:  19    -0.292105750667E+02   -0.85980E-07   -0.60288E-07  4685   0.225E-02
   1 F= -.29210575E+02 E0= -.29210575E+02  d E =-.567729E-13
