<?xml version="1.0" encoding="ISO-8859-1"?>
<modeling>
 <generator>
  <i name="program" type="string">vasp </i>
  <i name="version" type="string">5.4.4.18Apr17-6-g9f103f2a35  </i>
  <i name="subversion" type="string">(build Dec 13 2019 19:06:22) complex            parallel </i>
  <i name="platform" type="string">LinuxIFC </i>
  <i name="date" type="string">2021 08 06 </i>
  <i name="time" type="string">14:38:04 </i>
 </generator>
 <incar>
  <i type="string" name="PREC">accurate</i>
  <i type="string" name="ALGO"> Fast</i>
  <i type="int" name="ISPIN">     1</i>
  <i type="int" name="ICHARG">    11</i>
  <i type="int" name="NELM">    60</i>
  <i type="int" name="IBRION">    -1</i>
  <i name="EDIFF">      0.00000010</i>
  <i name="ENCUT">    550.00000000</i>
  <i type="int" name="NBANDS">    36</i>
  <i type="logical" name="LREAL"> F  </i>
  <i type="int" name="ISMEAR">     0</i>
  <i type="logical" name="LWAVE"> F  </i>
  <i type="logical" name="LCHARG"> F  </i>
  <v type="int" name="KPOINT_BSE">    -1     0     0     0</v>
  <i type="int" name="NELM">    60</i>
  <i type="string" name="GGA"> PS</i>
 </incar>
 <structure name="primitive_cell" >
  <crystal>
   <varray name="basis" >
    <v>       1.42005454       0.81986888       5.62827908 </v>
    <v>      -1.42005454       0.81986888       5.62827908 </v>
    <v>       0.00000000      -1.63973774       5.62827908 </v>
   </varray>
   <i name="volume">     39.31663112 </i>
   <varray name="rec_basis" >
    <v>       0.35209915       0.20328454       0.05922473 </v>
    <v>      -0.35209915       0.20328454       0.05922473 </v>
    <v>      -0.00000000      -0.40656908       0.05922473 </v>
   </varray>
  </crystal>
  <varray name="positions" >
   <v>       0.00000000       0.00000000       0.00000000 </v>
   <v>       0.10956395       0.10956395       0.10956395 </v>
   <v>      -0.10956395      -0.10956395      -0.10956395 </v>
   <v>      -0.50000000      -0.50000000      -0.50000000 </v>
  </varray>
 </structure>
 <varray name="primitive_index" >
  <v type="int" >        1 </v>
  <v type="int" >        3 </v>
  <v type="int" >        4 </v>
  <v type="int" >        2 </v>
 </varray>
 <kpoints>
  <varray name="kpointlist" >
   <v>       0.00009173       0.41199382       0.58823941 </v>
   <v>      -0.00845016       0.42053571       0.58823941 </v>
   <v>      -0.00417922       0.41626476       0.58823941 </v>
   <v>       0.00436267       0.40772287       0.58823941 </v>
   <v>       0.00863362       0.40345193       0.58823941 </v>
   <v>      -0.00483993       0.40706216       0.59810273 </v>
   <v>      -0.00237410       0.40952799       0.59317107 </v>
   <v>       0.00255756       0.41445965       0.58330775 </v>
   <v>       0.00502339       0.41692548       0.57837608 </v>
   <v>      -0.03376341       0.37813868       0.55438427 </v>
   <v>      -0.01683584       0.39506625       0.57131184 </v>
   <v>       0.01701930       0.42892139       0.60516698 </v>
   <v>       0.03394687       0.44584896       0.62209455 </v>
   <v>      -0.01338182       0.41560405       0.59810273 </v>
   <v>      -0.00911088       0.41133310       0.59810273 </v>
   <v>      -0.00056899       0.40279121       0.59810273 </v>
   <v>       0.00370196       0.39852027       0.59810273 </v>
   <v>      -0.01091599       0.41806988       0.59317107 </v>
   <v>      -0.00664505       0.41379893       0.59317107 </v>
   <v>       0.00189684       0.40525704       0.59317107 </v>
   <v>       0.00616779       0.40098610       0.59317107 </v>
   <v>      -0.00598433       0.42300154       0.58330775 </v>
   <v>      -0.00171338       0.41873060       0.58330775 </v>
   <v>       0.00682851       0.41018871       0.58330775 </v>
   <v>       0.01109945       0.40591776       0.58330775 </v>
   <v>      -0.00351850       0.42546737       0.57837608 </v>
   <v>       0.00075245       0.42119643       0.57837608 </v>
   <v>       0.00929434       0.41265454       0.57837608 </v>
   <v>       0.01356528       0.40838359       0.57837608 </v>
   <v>      -0.04230530       0.38668057       0.55438427 </v>
   <v>      -0.03803436       0.38240962       0.55438427 </v>
   <v>      -0.02949247       0.37386773       0.55438427 </v>
   <v>      -0.02522152       0.36959679       0.55438427 </v>
   <v>      -0.02537773       0.40360814       0.57131184 </v>
   <v>      -0.02110679       0.39933719       0.57131184 </v>
   <v>      -0.01256490       0.39079530       0.57131184 </v>
   <v>      -0.00829395       0.38652436       0.57131184 </v>
   <v>       0.00847741       0.43746328       0.60516698 </v>
   <v>       0.01274835       0.43319233       0.60516698 </v>
   <v>       0.02129024       0.42465044       0.60516698 </v>
   <v>       0.02556119       0.42037950       0.60516698 </v>
   <v>       0.02540498       0.45439085       0.62209455 </v>
   <v>       0.02967592       0.45011990       0.62209455 </v>
   <v>       0.03821782       0.44157801       0.62209455 </v>
   <v>       0.04248876       0.43730707       0.62209455 </v>
   <v>      -0.03869507       0.37320702       0.56424759 </v>
   <v>      -0.03622924       0.37567285       0.55931593 </v>
   <v>      -0.03129758       0.38060451       0.54945260 </v>
   <v>      -0.02883175       0.38307034       0.54452094 </v>
   <v>      -0.02176750       0.39013459       0.58117516 </v>
   <v>      -0.01930167       0.39260042       0.57624350 </v>
   <v>      -0.01437001       0.39753208       0.56638017 </v>
   <v>      -0.01190418       0.39999791       0.56144851 </v>
   <v>       0.01208764       0.42398973       0.61503030 </v>
   <v>       0.01455347       0.42645556       0.61009864 </v>
   <v>       0.01948513       0.43138722       0.60023532 </v>
   <v>       0.02195096       0.43385305       0.59530365 </v>
   <v>       0.02901521       0.44091730       0.63195787 </v>
   <v>       0.03148104       0.44338313       0.62702621 </v>
   <v>       0.03641270       0.44831479       0.61716289 </v>
   <v>       0.03887853       0.45078062       0.61223122 </v>
  </varray>
  <varray name="weights" >
   <v>       0.01639344 </v>
   <v>       0.01639344 </v>
   <v>       0.01639344 </v>
   <v>       0.01639344 </v>
   <v>       0.01639344 </v>
   <v>       0.01639344 </v>
   <v>       0.01639344 </v>
   <v>       0.01639344 </v>
   <v>       0.01639344 </v>
   <v>       0.01639344 </v>
   <v>       0.01639344 </v>
   <v>       0.01639344 </v>
   <v>       0.01639344 </v>
   <v>       0.01639344 </v>
   <v>       0.01639344 </v>
   <v>       0.01639344 </v>
   <v>       0.01639344 </v>
   <v>       0.01639344 </v>
   <v>       0.01639344 </v>
   <v>       0.01639344 </v>
   <v>       0.01639344 </v>
   <v>       0.01639344 </v>
   <v>       0.01639344 </v>
   <v>       0.01639344 </v>
   <v>       0.01639344 </v>
   <v>       0.01639344 </v>
   <v>       0.01639344 </v>
   <v>       0.01639344 </v>
   <v>       0.01639344 </v>
   <v>       0.01639344 </v>
   <v>       0.01639344 </v>
   <v>       0.01639344 </v>
   <v>       0.01639344 </v>
   <v>       0.01639344 </v>
   <v>       0.01639344 </v>
   <v>       0.01639344 </v>
   <v>       0.01639344 </v>
   <v>       0.01639344 </v>
   <v>       0.01639344 </v>
   <v>       0.01639344 </v>
   <v>       0.01639344 </v>
   <v>       0.01639344 </v>
   <v>       0.01639344 </v>
   <v>       0.01639344 </v>
   <v>       0.01639344 </v>
   <v>       0.01639344 </v>
   <v>       0.01639344 </v>
   <v>       0.01639344 </v>
   <v>       0.01639344 </v>
   <v>       0.01639344 </v>
   <v>       0.01639344 </v>
   <v>       0.01639344 </v>
   <v>       0.01639344 </v>
   <v>       0.01639344 </v>
   <v>       0.01639344 </v>
   <v>       0.01639344 </v>
   <v>       0.01639344 </v>
   <v>       0.01639344 </v>
   <v>       0.01639344 </v>
   <v>       0.01639344 </v>
   <v>       0.01639344 </v>
  </varray>
 </kpoints>
 <parameters>
  <separator name="general" >
   <i type="string" name="SYSTEM">unknown system</i>
   <i type="logical" name="LCOMPAT"> F  </i>
  </separator>
  <separator name="electronic" >
   <i type="string" name="PREC">accura</i>
   <i name="ENMAX">    550.00000000</i>
   <i name="ENAUG">    982.89200000</i>
   <i name="EDIFF">      0.00000010</i>
   <i type="int" name="IALGO">    68</i>
   <i type="int" name="IWAVPR">    10</i>
   <i type="int" name="NBANDS">    36</i>
   <i name="NELECT">     34.00000000</i>
   <i type="int" name="TURBO">     0</i>
   <i type="int" name="IRESTART">     0</i>
   <i type="int" name="NREBOOT">     0</i>
   <i type="int" name="NMIN">     0</i>
   <i name="EREF">      0.00000000</i>
   <separator name="electronic smearing" >
    <i type="int" name="ISMEAR">     0</i>
    <i name="SIGMA">      0.20000000</i>
    <i name="KSPACING">      0.50000000</i>
    <i type="logical" name="KGAMMA"> T  </i>
   </separator>
   <separator name="electronic projectors" >
    <i type="logical" name="LREAL"> F  </i>
    <v name="ROPT">      0.00000000      0.00000000      0.00000000</v>
    <i type="int" name="LMAXPAW">  -100</i>
    <i type="int" name="LMAXMIX">     2</i>
    <i type="logical" name="NLSPLINE"> F  </i>
   </separator>
   <separator name="electronic startup" >
    <i type="int" name="ISTART">     0</i>
    <i type="int" name="ICHARG">    11</i>
    <i type="int" name="INIWAV">     1</i>
   </separator>
   <separator name="electronic spin" >
    <i type="int" name="ISPIN">     1</i>
    <i type="logical" name="LNONCOLLINEAR"> F  </i>
    <v name="MAGMOM">      1.00000000      1.00000000      1.00000000      1.00000000</v>
    <i name="NUPDOWN">     -1.00000000</i>
    <i type="logical" name="LSORBIT"> F  </i>
    <v name="SAXIS">      0.00000000      0.00000000      1.00000000</v>
    <i type="logical" name="LSPIRAL"> F  </i>
    <v name="QSPIRAL">      0.00000000      0.00000000      0.00000000</v>
    <i type="logical" name="LZEROZ"> F  </i>
   </separator>
   <separator name="electronic exchange-correlation" >
    <i type="logical" name="LASPH"> F  </i>
    <i type="logical" name="LMETAGGA"> F  </i>
   </separator>
   <separator name="electronic convergence" >
    <i type="int" name="NELM">    60</i>
    <i type="int" name="NELMDL">    -5</i>
    <i type="int" name="NELMIN">     2</i>
    <i name="ENINI">    550.00000000</i>
    <separator name="electronic convergence detail" >
     <i type="logical" name="LDIAG"> T  </i>
     <i type="logical" name="LSUBROT"> F  </i>
     <i name="WEIMIN">      0.00000000</i>
     <i name="EBREAK">      0.00000000</i>
     <i name="DEPER">      0.30000000</i>
     <i type="int" name="NRMM">     4</i>
     <i name="TIME">      0.40000000</i>
    </separator>
   </separator>
   <separator name="electronic mixer" >
    <i name="AMIX">      0.40000000</i>
    <i name="BMIX">      1.00000000</i>
    <i name="AMIN">      0.10000000</i>
    <i name="AMIX_MAG">      1.60000000</i>
    <i name="BMIX_MAG">      1.00000000</i>
    <separator name="electronic mixer details" >
     <i type="int" name="IMIX">     4</i>
     <i type="logical" name="MIXFIRST"> F  </i>
     <i type="int" name="MAXMIX">   -45</i>
     <i name="WC">    100.00000000</i>
     <i type="int" name="INIMIX">     1</i>
     <i type="int" name="MIXPRE">     1</i>
     <i type="int" name="MREMOVE">     5</i>
    </separator>
   </separator>
   <separator name="electronic dipolcorrection" >
    <i type="logical" name="LDIPOL"> F  </i>
    <i type="logical" name="LMONO"> F  </i>
    <i type="int" name="IDIPOL">     0</i>
    <i name="EPSILON">      1.00000000</i>
    <v name="DIPOL">   -100.00000000   -100.00000000   -100.00000000</v>
    <i name="EFIELD">      0.00000000</i>
   </separator>
  </separator>
  <separator name="grids" >
   <i type="int" name="NGX">    48</i>
   <i type="int" name="NGY">    48</i>
   <i type="int" name="NGZ">    48</i>
   <i type="int" name="NGXF">    96</i>
   <i type="int" name="NGYF">    96</i>
   <i type="int" name="NGZF">    96</i>
   <i type="logical" name="ADDGRID"> F  </i>
  </separator>
  <separator name="ionic" >
   <i type="int" name="NSW">     0</i>
   <i type="int" name="IBRION">    -1</i>
   <i type="int" name="MDALGO">     0</i>
   <i type="int" name="ISIF">     2</i>
   <i name="PSTRESS">      0.00000000</i>
   <i name="EDIFFG">      0.00000100</i>
   <i type="int" name="NFREE">     0</i>
   <i name="POTIM">      0.50000000</i>
   <i name="SMASS">     -3.00000000</i>
   <i name="SCALEE">      1.00000000</i>
  </separator>
  <separator name="ionic md" >
   <i name="TEBEG">      0.00010000</i>
   <i name="TEEND">      0.00010000</i>
   <i type="int" name="NBLOCK">     1</i>
   <i type="int" name="KBLOCK">     1</i>
   <i type="int" name="NPACO">   256</i>
   <i name="APACO">     16.00000000</i>
  </separator>
  <separator name="symmetry" >
   <i type="int" name="ISYM">     2</i>
   <i name="SYMPREC">      0.00001000</i>
  </separator>
  <separator name="dos" >
   <i type="int" name="LORBIT">     0</i>
   <v name="RWIGS">     -1.00000000     -1.00000000     -1.00000000</v>
   <i type="int" name="NEDOS">   301</i>
   <i name="EMIN">     10.00000000</i>
   <i name="EMAX">    -10.00000000</i>
   <i name="EFERMI">      0.00000000</i>
  </separator>
  <separator name="writing" >
   <i type="int" name="NWRITE">     2</i>
   <i type="logical" name="LWAVE"> F  </i>
   <i type="logical" name="LDOWNSAMPLE"> F  </i>
   <i type="logical" name="LCHARG"> F  </i>
   <i type="logical" name="LPARD"> F  </i>
   <i type="logical" name="LVTOT"> F  </i>
   <i type="logical" name="LVHAR"> F  </i>
   <i type="logical" name="LELF"> F  </i>
   <i type="logical" name="LOPTICS"> F  </i>
   <v name="STM">      0.00000000      0.00000000      0.00000000      0.00000000      0.00000000      0.00000000      0.00000000</v>
  </separator>
  <separator name="performance" >
   <i type="int" name="NPAR">     6</i>
   <i type="int" name="NSIM">     4</i>
   <i type="int" name="NBLK">    -1</i>
   <i type="logical" name="LPLANE"> T  </i>
   <i type="logical" name="LSCALAPACK"> T  </i>
   <i type="logical" name="LSCAAWARE"> F  </i>
   <i type="logical" name="LSCALU"> F  </i>
   <i type="logical" name="LASYNC"> F  </i>
   <i type="logical" name="LORBITALREAL"> F  </i>
  </separator>
  <separator name="miscellaneous" >
   <i type="int" name="IDIOT">     3</i>
   <i type="int" name="ISPECIAL">     0</i>
   <i type="logical" name="LMUSIC"> F  </i>
   <v name="POMASS">     63.54600000     26.98200000     16.00000000</v>
   <v name="DARWINR">      0.00000000      0.00000000      0.00000000</v>
   <v name="DARWINV">      1.00000000      1.00000000      1.00000000</v>
   <i type="logical" name="LCORR"> T  </i>
  </separator>
  <i type="logical" name="GGA_COMPAT"> T  </i>
  <i type="logical" name="LBERRY"> F  </i>
  <i type="int" name="ICORELEVEL">     0</i>
  <i type="logical" name="LDAU"> F  </i>
  <i type="int" name="I_CONSTRAINED_M">     0</i>
  <separator name="electronic exchange-correlation" >
   <i type="string" name="GGA">PS</i>
   <i type="int" name="VOSKOWN">     0</i>
   <i type="logical" name="LHFCALC"> F  </i>
   <i type="string" name="PRECFOCK"></i>
   <i type="logical" name="LSYMGRAD"> F  </i>
   <i type="logical" name="LHFONE"> F  </i>
   <i type="logical" name="LRHFCALC"> F  </i>
   <i type="logical" name="LTHOMAS"> F  </i>
   <i type="logical" name="LMODELHF"> F  </i>
   <i name="ENCUT4O">     -1.00000000</i>
   <i type="int" name="EXXOEP">     0</i>
   <i type="int" name="FOURORBIT">     0</i>
   <i name="AEXX">      0.00000000</i>
   <i name="HFALPHA">      0.00000000</i>
   <i name="MCALPHA">      0.00000000</i>
   <i name="ALDAX">      1.00000000</i>
   <i name="AGGAX">      1.00000000</i>
   <i name="ALDAC">      1.00000000</i>
   <i name="AGGAC">      1.00000000</i>
   <i type="int" name="NKREDX">     1</i>
   <i type="int" name="NKREDY">     1</i>
   <i type="int" name="NKREDZ">     1</i>
   <i type="logical" name="SHIFTRED"> F  </i>
   <i type="logical" name="ODDONLY"> F  </i>
   <i type="logical" name="EVENONLY"> F  </i>
   <i type="int" name="LMAXFOCK">     0</i>
   <i type="int" name="NMAXFOCKAE">     0</i>
   <i type="logical" name="LFOCKAEDFT"> F  </i>
   <i name="HFSCREEN">      0.00000000</i>
   <i name="HFSCREENC">      0.00000000</i>
   <i type="int" name="NBANDSGWLOW">     0</i>
  </separator>
  <separator name="vdW DFT" >
   <i type="logical" name="LUSE_VDW"> F  </i>
   <i name="Zab_VDW">     -0.84910000</i>
   <i name="PARAM1">      0.12340000</i>
   <i name="PARAM2">      1.00000000</i>
   <i name="PARAM3">      0.00000000</i>
  </separator>
  <separator name="model GW" >
   <i type="int" name="MODEL_GW">     0</i>
   <i name="MODEL_EPS0">      5.89749467</i>
   <i name="MODEL_ALPHA">      1.00000000</i>
  </separator>
  <separator name="linear response parameters" >
   <i type="logical" name="LEPSILON"> F  </i>
   <i type="logical" name="LRPA"> F  </i>
   <i type="logical" name="LNABLA"> F  </i>
   <i type="logical" name="LVEL"> F  </i>
   <i type="int" name="KINTER">     0</i>
   <i name="CSHIFT">      0.10000000</i>
   <i name="OMEGAMAX">     -1.00000000</i>
   <i name="DEG_THRESHOLD">      0.00200000</i>
   <i name="RTIME">     -0.10000000</i>
   <i name="WPLASMAI">      0.00000000</i>
   <v name="DFIELD">      0.00000000      0.00000000      0.00000000</v>
   <v name="WPLASMA">      0.00000000      0.00000000      0.00000000      0.00000000      0.00000000      0.00000000      0.00000000      0.00000000      0.00000000</v>
  </separator>
  <separator name="orbital magnetization" >
   <i type="logical" name="NUCIND"> F  </i>
   <v name="MAGPOS">      0.00000000      0.00000000      0.00000000</v>
   <i type="logical" name="LNICSALL"> T  </i>
   <i type="logical" name="ORBITALMAG"> F  </i>
   <i type="logical" name="LMAGBLOCH"> F  </i>
   <i type="logical" name="LCHIMAG"> F  </i>
   <i type="logical" name="LGAUGE"> T  </i>
   <i type="int" name="MAGATOM">     0</i>
   <v name="MAGDIPOL">      0.00000000      0.00000000      0.00000000</v>
   <v name="AVECCONST">      0.00000000      0.00000000      0.00000000</v>
  </separator>
  <separator name="response functions" >
   <i type="logical" name="LADDER"> F  </i>
   <i type="logical" name="LRPAFORCE"> F  </i>
   <i type="logical" name="LFXC"> F  </i>
   <i type="logical" name="LHARTREE"> T  </i>
   <i type="int" name="IBSE">     0</i>
   <v type="int" name="KPOINT">    -1     0     0     0</v>
   <i type="logical" name="LTCTE"> F  </i>
   <i type="logical" name="LTETE"> F  </i>
   <i type="logical" name="LTRIPLET"> F  </i>
   <i type="logical" name="LFXCEPS"> F  </i>
   <i type="logical" name="LFXHEG"> F  </i>
   <i type="int" name="NATURALO">     2</i>
   <i type="logical" name="L2ORDER"> F  </i>
   <i type="logical" name="LMP2LT"> F  </i>
   <i type="logical" name="LUSEW"> F  </i>
   <i name="ENCUTGW">     -2.00000000</i>
   <i name="ENCUTGWSOFT">     -2.00000000</i>
   <i name="ENCUTLF">     -1.00000000</i>
   <i type="int" name="LMAXMP2">    -1</i>
   <i name="SCISSOR">      0.00000000</i>
   <i type="int" name="NOMEGA">     0</i>
   <i type="int" name="NOMEGAR">     0</i>
   <i type="int" name="NBANDSGW">    -1</i>
   <i type="int" name="NBANDSO">    -1</i>
   <i type="int" name="NBANDSV">    -1</i>
   <i type="int" name="NELM">    60</i>
   <i type="int" name="NELMHF">     1</i>
   <i type="int" name="DIM">     3</i>
   <i type="int" name="ANTIRES">     0</i>
   <i name="OMEGAMAX">    -30.00000000</i>
   <i name="OMEGAMIN">    -30.00000000</i>
   <i name="OMEGATL">   -200.00000000</i>
   <i type="int" name="OMEGAGRID">   140</i>
   <i name="CSHIFT">     -0.10000000</i>
   <i type="logical" name="SELFENERGY"> F  </i>
   <i type="logical" name="LSPECTRAL"> F  </i>
   <i type="logical" name="LSPECTRALGW"> F  </i>
   <i type="logical" name="LSINGLES"> F  </i>
   <i type="logical" name="LFERMIGW"> F  </i>
   <i type="logical" name="ODDONLYGW"> F  </i>
   <i type="logical" name="EVENONLYGW"> F  </i>
   <i type="int" name="NKREDLFX">     1</i>
   <i type="int" name="NKREDLFY">     1</i>
   <i type="int" name="NKREDLFZ">     1</i>
   <i type="int" name="MAXMEM">  2800</i>
   <i type="int" name="TELESCOPE">     0</i>
   <i type="int" name="TAUPAR">     1</i>
   <i type="int" name="OMEGAPAR">    -1</i>
   <i name="LAMBDA">      1.00000000</i>
  </separator>
  <separator name="External order field" >
   <i name="OFIELD_KAPPA">      0.00000000</i>
   <v name="OFIELD_K">      0.00000000      0.00000000      0.00000000</v>
   <i name="OFIELD_Q6_NEAR">      0.00000000</i>
   <i name="OFIELD_Q6_FAR">      0.00000000</i>
   <i name="OFIELD_A">      0.00000000</i>
  </separator>
 </parameters>
 <atominfo>
  <atoms>       4 </atoms>
  <types>       3 </types>
  <array name="atoms" >
   <dimension dim="1">ion</dimension>
   <field type="string">element</field>
   <field type="int">atomtype</field>
   <set>
    <rc><c>Cu</c><c>   1</c></rc>
    <rc><c>Al</c><c>   2</c></rc>
    <rc><c>O </c><c>   3</c></rc>
    <rc><c>O </c><c>   3</c></rc>
   </set>
  </array>
  <array name="atomtypes" >
   <dimension dim="1">type</dimension>
   <field type="int">atomspertype</field>
   <field type="string">element</field>
   <field>mass</field>
   <field>valence</field>
   <field type="string">pseudopotential</field>
   <set>
    <rc><c>   1</c><c>Cu</c><c>     63.54600000</c><c>     19.00000000</c><c>  PAW_PBE Cu_sv_GW 05Dec2013            </c></rc>
    <rc><c>   1</c><c>Al</c><c>     26.98200000</c><c>      3.00000000</c><c>  PAW_PBE Al_GW 19Mar2012               </c></rc>
    <rc><c>   2</c><c>O </c><c>     16.00000000</c><c>      6.00000000</c><c>  PAW_PBE O_GW 28Sep2005                </c></rc>
   </set>
  </array>
 </atominfo>
 <structure name="initialpos" >
  <crystal>
   <varray name="basis" >
    <v>       1.42005454       0.81986888       5.62827908 </v>
    <v>      -1.42005454       0.81986888       5.62827908 </v>
    <v>       0.00000000      -1.63973774       5.62827908 </v>
   </varray>
   <i name="volume">     39.31663112 </i>
   <varray name="rec_basis" >
    <v>       0.35209915       0.20328454       0.05922473 </v>
    <v>      -0.35209915       0.20328454       0.05922473 </v>
    <v>      -0.00000000      -0.40656908       0.05922473 </v>
   </varray>
  </crystal>
  <varray name="positions" >
   <v>       0.00000000       0.00000000       0.00000000 </v>
   <v>       0.50000000       0.50000000       0.50000000 </v>
   <v>       0.10956395       0.10956395       0.10956395 </v>
   <v>       0.89043605       0.89043605       0.89043605 </v>
  </varray>
 </structure>
 <calculation>
  <scstep>
   <time name="dav">   10.27   10.35</time>
   <time name="total">   10.43   10.51</time>
   <energy>
    <i name="alphaZ">    167.28213848 </i>
    <i name="ewald">  -3351.06778565 </i>
    <i name="hartreedc">  -2400.81965511 </i>
    <i name="XCdc">    180.92806670 </i>
    <i name="pawpsdc">   5402.02430262 </i>
    <i name="pawaedc">  -5725.83564433 </i>
    <i name="eentropy">     -0.02299924 </i>
    <i name="bandstr">   -245.54899040 </i>
    <i name="atom">   6293.50105541 </i>
    <i name="e_fr_energy">    320.44048849 </i>
    <i name="e_wo_entrp">    320.46348773 </i>
    <i name="e_0_energy">    320.45198811 </i>
   </energy>
  </scstep>
  <scstep>
   <time name="dav">   10.94   11.02</time>
   <time name="total">   10.94   11.02</time>
   <energy>
    <i name="e_fr_energy">    -10.43459753 </i>
    <i name="e_wo_entrp">    -10.43459753 </i>
    <i name="e_0_energy">    -10.43459753 </i>
   </energy>
  </scstep>
  <scstep>
   <time name="dav">   10.76   10.84</time>
   <time name="total">   10.76   10.84</time>
   <energy>
    <i name="e_fr_energy">    -28.67395157 </i>
    <i name="e_wo_entrp">    -28.67395157 </i>
    <i name="e_0_energy">    -28.67395157 </i>
   </energy>
  </scstep>
  <scstep>
   <time name="dav">    9.85    9.92</time>
   <time name="total">    9.85    9.92</time>
   <energy>
    <i name="e_fr_energy">    -29.18961341 </i>
    <i name="e_wo_entrp">    -29.18961341 </i>
    <i name="e_0_energy">    -29.18961341 </i>
   </energy>
  </scstep>
  <scstep>
   <time name="dav">    8.85    8.92</time>
   <time name="total">    8.85    8.92</time>
   <energy>
    <i name="e_fr_energy">    -29.20907847 </i>
    <i name="e_wo_entrp">    -29.20907847 </i>
    <i name="e_0_energy">    -29.20907847 </i>
   </energy>
  </scstep>
  <scstep>
   <time name="diag">    1.45    1.46</time>
   <time name="diis">   12.23   12.32</time>
   <time name="orth">    0.04    0.04</time>
   <time name="total">   13.72   13.82</time>
   <energy>
    <i name="e_fr_energy">    -29.21003110 </i>
    <i name="e_wo_entrp">    -29.21003110 </i>
    <i name="e_0_energy">    -29.21003110 </i>
   </energy>
  </scstep>
  <scstep>
   <time name="diag">    1.46    1.47</time>
   <time name="diis">   10.89   10.96</time>
   <time name="orth">    0.05    0.05</time>
   <time name="total">   12.39   12.48</time>
   <energy>
    <i name="e_fr_energy">    -29.21038019 </i>
    <i name="e_wo_entrp">    -29.21038019 </i>
    <i name="e_0_energy">    -29.21038019 </i>
   </energy>
  </scstep>
  <scstep>
   <time name="diag">    1.43    1.44</time>
   <time name="diis">   11.07   11.15</time>
   <time name="orth">    0.04    0.04</time>
   <time name="total">   12.54   12.62</time>
   <energy>
    <i name="e_fr_energy">    -29.21048403 </i>
    <i name="e_wo_entrp">    -29.21048403 </i>
    <i name="e_0_energy">    -29.21048403 </i>
   </energy>
  </scstep>
  <scstep>
   <time name="diag">    1.39    1.40</time>
   <time name="diis">   10.65   10.72</time>
   <time name="orth">    0.04    0.04</time>
   <time name="total">   12.08   12.16</time>
   <energy>
    <i name="e_fr_energy">    -29.21052477 </i>
    <i name="e_wo_entrp">    -29.21052477 </i>
    <i name="e_0_energy">    -29.21052477 </i>
   </energy>
  </scstep>
  <scstep>
   <time name="diag">    1.43    1.44</time>
   <time name="diis">   10.40   10.47</time>
   <time name="orth">    0.04    0.04</time>
   <time name="total">   11.88   11.96</time>
   <energy>
    <i name="e_fr_energy">    -29.21055076 </i>
    <i name="e_wo_entrp">    -29.21055076 </i>
    <i name="e_0_energy">    -29.21055076 </i>
   </energy>
  </scstep>
  <scstep>
   <time name="diag">    1.45    1.46</time>
   <time name="diis">    9.71    9.78</time>
   <time name="orth">    0.05    0.05</time>
   <time name="total">   11.21   11.29</time>
   <energy>
    <i name="e_fr_energy">    -29.21056255 </i>
    <i name="e_wo_entrp">    -29.21056255 </i>
    <i name="e_0_energy">    -29.21056255 </i>
   </energy>
  </scstep>
  <scstep>
   <time name="diag">    1.56    1.57</time>
   <time name="diis">   10.22   10.29</time>
   <time name="orth">    0.05    0.05</time>
   <time name="total">   11.83   11.91</time>
   <energy>
    <i name="e_fr_energy">    -29.21056829 </i>
    <i name="e_wo_entrp">    -29.21056829 </i>
    <i name="e_0_energy">    -29.21056829 </i>
   </energy>
  </scstep>
  <scstep>
   <time name="diag">    1.42    1.43</time>
   <time name="diis">    9.47    9.53</time>
   <time name="orth">    0.04    0.04</time>
   <time name="total">   10.93   11.00</time>
   <energy>
    <i name="e_fr_energy">    -29.21057121 </i>
    <i name="e_wo_entrp">    -29.21057121 </i>
    <i name="e_0_energy">    -29.21057121 </i>
   </energy>
  </scstep>
  <scstep>
   <time name="diag">    1.45    1.46</time>
   <time name="diis">    9.11    9.16</time>
   <time name="orth">    0.04    0.04</time>
   <time name="total">   10.60   10.66</time>
   <energy>
    <i name="e_fr_energy">    -29.21057320 </i>
    <i name="e_wo_entrp">    -29.21057320 </i>
    <i name="e_0_energy">    -29.21057320 </i>
   </energy>
  </scstep>
  <scstep>
   <time name="diag">    1.41    1.42</time>
   <time name="diis">    8.64    8.68</time>
   <time name="orth">    0.04    0.05</time>
   <time name="total">   10.09   10.14</time>
   <energy>
    <i name="e_fr_energy">    -29.21057406 </i>
    <i name="e_wo_entrp">    -29.21057406 </i>
    <i name="e_0_energy">    -29.21057406 </i>
   </energy>
  </scstep>
  <scstep>
   <time name="diag">    1.45    1.46</time>
   <time name="diis">    8.44    8.48</time>
   <time name="orth">    0.04    0.04</time>
   <time name="total">    9.92    9.98</time>
   <energy>
    <i name="e_fr_energy">    -29.21057454 </i>
    <i name="e_wo_entrp">    -29.21057454 </i>
    <i name="e_0_energy">    -29.21057454 </i>
   </energy>
  </scstep>
  <scstep>
   <time name="diag">    1.46    1.47</time>
   <time name="diis">    8.10    8.14</time>
   <time name="orth">    0.04    0.04</time>
   <time name="total">    9.60    9.65</time>
   <energy>
    <i name="e_fr_energy">    -29.21057481 </i>
    <i name="e_wo_entrp">    -29.21057481 </i>
    <i name="e_0_energy">    -29.21057481 </i>
   </energy>
  </scstep>
  <scstep>
   <time name="diag">    1.42    1.43</time>
   <time name="diis">    7.68    7.72</time>
   <time name="orth">    0.04    0.04</time>
   <time name="total">    9.15    9.20</time>
   <energy>
    <i name="e_fr_energy">    -29.21057498 </i>
    <i name="e_wo_entrp">    -29.21057498 </i>
    <i name="e_0_energy">    -29.21057498 </i>
   </energy>
  </scstep>
  <scstep>
   <time name="diag">    1.42    1.43</time>
   <time name="diis">    8.16    8.20</time>
   <time name="orth">    0.04    0.04</time>
   <time name="total">    9.62    9.68</time>
   <energy>
    <i name="alphaZ">    167.28213848 </i>
    <i name="ewald">  -3351.06778565 </i>
    <i name="hartreedc">  -2400.81965511 </i>
    <i name="XCdc">    180.92806670 </i>
    <i name="pawpsdc">   5402.02430262 </i>
    <i name="pawaedc">  -5725.83564433 </i>
    <i name="eentropy">     -0.00000000 </i>
    <i name="bandstr">   -595.22305319 </i>
    <i name="atom">   6293.50105541 </i>
    <i name="e_fr_energy">    -29.21057507 </i>
    <i name="e_wo_entrp">    -29.21057507 </i>
    <i name="e_0_energy">    -29.21057507 </i>
   </energy>
  </scstep>
  <structure>
   <crystal>
    <varray name="basis" >
     <v>       1.42005454       0.81986888       5.62827908 </v>
     <v>      -1.42005454       0.81986888       5.62827908 </v>
     <v>       0.00000000      -1.63973774       5.62827908 </v>
    </varray>
    <i name="volume">     39.31663112 </i>
    <varray name="rec_basis" >
     <v>       0.35209915       0.20328454       0.05922473 </v>
     <v>      -0.35209915       0.20328454       0.05922473 </v>
     <v>      -0.00000000      -0.40656908       0.05922473 </v>
    </varray>
   </crystal>
   <varray name="positions" >
    <v>       0.00000000       0.00000000       0.00000000 </v>
    <v>       0.50000000       0.50000000       0.50000000 </v>
    <v>       0.10956395       0.10956395       0.10956395 </v>
    <v>       0.89043605       0.89043605       0.89043605 </v>
   </varray>
  </structure>
  <varray name="forces" >
   <v>       0.00000000       0.00000000       0.00000000 </v>
   <v>       0.00000000       0.00000000       0.00000000 </v>
   <v>      -0.00000000       0.00000000       0.21808941 </v>
   <v>       0.00000000      -0.00000000      -0.21808941 </v>
  </varray>
  <varray name="stress" >
   <v>    2224.86713565      -0.00000000      -0.00000000 </v>
   <v>      -0.00000000    2224.86712576       0.00000110 </v>
   <v>      -0.00000000       0.00000110    1860.45202809 </v>
  </varray>
  <energy>
   <i name="e_fr_energy">    -29.21057507 </i>
   <i name="e_wo_entrp">    -29.21057507 </i>
   <i name="e_0_energy">     -0.00000000 </i>
  </energy>
  <time name="totalsc">  208.66  210.03</time>
  <eigenvalues>
   <array>
    <dimension dim="1">band</dimension>
    <dimension dim="2">kpoint</dimension>
    <dimension dim="3">spin</dimension>
    <field>eigene</field>
    <field>occ</field>
    <set>
     <set comment="spin 1">
      <set comment="kpoint 1">
       <r> -105.4652    1.0000 </r>
       <r>  -63.1592    1.0000 </r>
       <r>  -62.9706    1.0000 </r>
       <r>  -62.9603    1.0000 </r>
       <r>  -13.2352    1.0000 </r>
       <r>  -12.9567    1.0000 </r>
       <r>   -2.1680    1.0000 </r>
       <r>   -1.1814    1.0000 </r>
       <r>   -0.2915    1.0000 </r>
       <r>    1.0706    1.0000 </r>
       <r>    1.1690    1.0000 </r>
       <r>    1.8066    1.0000 </r>
       <r>    3.5170    1.0000 </r>
       <r>    4.1126    1.0000 </r>
       <r>    4.5074    1.0000 </r>
       <r>    4.7392    1.0000 </r>
       <r>    5.8521    1.0000 </r>
       <r>    9.5553    0.0000 </r>
       <r>   12.5350    0.0000 </r>
       <r>   15.2804    0.0000 </r>
       <r>   15.5831    0.0000 </r>
       <r>   16.0013    0.0000 </r>
       <r>   17.8162    0.0000 </r>
       <r>   18.2849    0.0000 </r>
       <r>   18.7539    0.0000 </r>
       <r>   21.6143    0.0000 </r>
       <r>   22.5509    0.0000 </r>
       <r>   24.8501    0.0000 </r>
       <r>   27.6978    0.0000 </r>
       <r>   27.8234    0.0000 </r>
       <r>   28.9712    0.0000 </r>
       <r>   29.8141    0.0000 </r>
       <r>   32.2070    0.0000 </r>
       <r>   33.3060    0.0000 </r>
       <r>   33.5342    0.0000 </r>
       <r>   34.9337    0.0000 </r>
      </set>
      <set comment="kpoint 2">
       <r> -105.4652    1.0000 </r>
       <r>  -63.1593    1.0000 </r>
       <r>  -62.9707    1.0000 </r>
       <r>  -62.9600    1.0000 </r>
       <r>  -13.2554    1.0000 </r>
       <r>  -12.9519    1.0000 </r>
       <r>   -2.1921    1.0000 </r>
       <r>   -1.2004    1.0000 </r>
       <r>   -0.2233    1.0000 </r>
       <r>    1.1088    1.0000 </r>
       <r>    1.1744    1.0000 </r>
       <r>    1.8137    1.0000 </r>
       <r>    3.4890    1.0000 </r>
       <r>    4.1067    1.0000 </r>
       <r>    4.5297    1.0000 </r>
       <r>    4.7511    1.0000 </r>
       <r>    5.8474    1.0000 </r>
       <r>    9.4701    0.0000 </r>
       <r>   12.5903    0.0000 </r>
       <r>   15.2167    0.0000 </r>
       <r>   15.4804    0.0000 </r>
       <r>   16.1011    0.0000 </r>
       <r>   17.8228    0.0000 </r>
       <r>   18.2912    0.0000 </r>
       <r>   18.7842    0.0000 </r>
       <r>   21.6093    0.0000 </r>
       <r>   22.6249    0.0000 </r>
       <r>   24.9119    0.0000 </r>
       <r>   27.5643    0.0000 </r>
       <r>   28.0505    0.0000 </r>
       <r>   29.0685    0.0000 </r>
       <r>   29.5612    0.0000 </r>
       <r>   32.1378    0.0000 </r>
       <r>   33.2771    0.0000 </r>
       <r>   33.6547    0.0000 </r>
       <r>   34.7564    0.0000 </r>
      </set>
      <set comment="kpoint 3">
       <r> -105.4652    1.0000 </r>
       <r>  -63.1592    1.0000 </r>
       <r>  -62.9707    1.0000 </r>
       <r>  -62.9602    1.0000 </r>
       <r>  -13.2436    1.0000 </r>
       <r>  -12.9551    1.0000 </r>
       <r>   -2.1813    1.0000 </r>
       <r>   -1.1912    1.0000 </r>
       <r>   -0.2574    1.0000 </r>
       <r>    1.0895    1.0000 </r>
       <r>    1.1714    1.0000 </r>
       <r>    1.8096    1.0000 </r>
       <r>    3.5027    1.0000 </r>
       <r>    4.1094    1.0000 </r>
       <r>    4.5192    1.0000 </r>
       <r>    4.7452    1.0000 </r>
       <r>    5.8510    1.0000 </r>
       <r>    9.5144    0.0000 </r>
       <r>   12.5584    0.0000 </r>
       <r>   15.2477    0.0000 </r>
       <r>   15.5321    0.0000 </r>
       <r>   16.0504    0.0000 </r>
       <r>   17.8202    0.0000 </r>
       <r>   18.2875    0.0000 </r>
       <r>   18.7711    0.0000 </r>
       <r>   21.6129    0.0000 </r>
       <r>   22.5874    0.0000 </r>
       <r>   24.8792    0.0000 </r>
       <r>   27.6475    0.0000 </r>
       <r>   27.9247    0.0000 </r>
       <r>   29.0187    0.0000 </r>
       <r>   29.6845    0.0000 </r>
       <r>   32.1736    0.0000 </r>
       <r>   33.2951    0.0000 </r>
       <r>   33.5881    0.0000 </r>
       <r>   34.8653    0.0000 </r>
      </set>
      <set comment="kpoint 4">
       <r> -105.4652    1.0000 </r>
       <r>  -63.1592    1.0000 </r>
       <r>  -62.9705    1.0000 </r>
       <r>  -62.9604    1.0000 </r>
       <r>  -13.2304    1.0000 </r>
       <r>  -12.9563    1.0000 </r>
       <r>   -2.1524    1.0000 </r>
       <r>   -1.1713    1.0000 </r>
       <r>   -0.3252    1.0000 </r>
       <r>    1.0525    1.0000 </r>
       <r>    1.1668    1.0000 </r>
       <r>    1.8045    1.0000 </r>
       <r>    3.5317    1.0000 </r>
       <r>    4.1166    1.0000 </r>
       <r>    4.4941    1.0000 </r>
       <r>    4.7333    1.0000 </r>
       <r>    5.8511    1.0000 </r>
       <r>    9.5918    0.0000 </r>
       <r>   12.5210    0.0000 </r>
       <r>   15.3145    0.0000 </r>
       <r>   15.6332    0.0000 </r>
       <r>   15.9545    0.0000 </r>
       <r>   17.8104    0.0000 </r>
       <r>   18.2739    0.0000 </r>
       <r>   18.7336    0.0000 </r>
       <r>   21.6120    0.0000 </r>
       <r>   22.5198    0.0000 </r>
       <r>   24.8238    0.0000 </r>
       <r>   27.6159    0.0000 </r>
       <r>   27.8465    0.0000 </r>
       <r>   28.9283    0.0000 </r>
       <r>   29.9478    0.0000 </r>
       <r>   32.2354    0.0000 </r>
       <r>   33.3413    0.0000 </r>
       <r>   33.5248    0.0000 </r>
       <r>   35.0374    0.0000 </r>
      </set>
      <set comment="kpoint 5">
       <r> -105.4652    1.0000 </r>
       <r>  -63.1592    1.0000 </r>
       <r>  -62.9704    1.0000 </r>
       <r>  -62.9606    1.0000 </r>
       <r>  -13.2291    1.0000 </r>
       <r>  -12.9541    1.0000 </r>
       <r>   -2.1344    1.0000 </r>
       <r>   -1.1612    1.0000 </r>
       <r>   -0.3581    1.0000 </r>
       <r>    1.0354    1.0000 </r>
       <r>    1.1648    1.0000 </r>
       <r>    1.8032    1.0000 </r>
       <r>    3.5470    1.0000 </r>
       <r>    4.1212    1.0000 </r>
       <r>    4.4795    1.0000 </r>
       <r>    4.7275    1.0000 </r>
       <r>    5.8481    1.0000 </r>
       <r>    9.6230    0.0000 </r>
       <r>   12.5169    0.0000 </r>
       <r>   15.3496    0.0000 </r>
       <r>   15.6814    0.0000 </r>
       <r>   15.9108    0.0000 </r>
       <r>   17.8028    0.0000 </r>
       <r>   18.2787    0.0000 </r>
       <r>   18.7089    0.0000 </r>
       <r>   21.6061    0.0000 </r>
       <r>   22.4918    0.0000 </r>
       <r>   24.8012    0.0000 </r>
       <r>   27.4830    0.0000 </r>
       <r>   27.9127    0.0000 </r>
       <r>   28.8915    0.0000 </r>
       <r>   30.0843    0.0000 </r>
       <r>   32.2588    0.0000 </r>
       <r>   33.2860    0.0000 </r>
       <r>   33.4903    0.0000 </r>
       <r>   35.1421    0.0000 </r>
      </set>
      <set comment="kpoint 6">
       <r> -105.4652    1.0000 </r>
       <r>  -63.1592    1.0000 </r>
       <r>  -62.9703    1.0000 </r>
       <r>  -62.9609    1.0000 </r>
       <r>  -13.2143    1.0000 </r>
       <r>  -12.9580    1.0000 </r>
       <r>   -2.1148    1.0000 </r>
       <r>   -1.1464    1.0000 </r>
       <r>   -0.4093    1.0000 </r>
       <r>    1.0041    1.0000 </r>
       <r>    1.1611    1.0000 </r>
       <r>    1.8021    1.0000 </r>
       <r>    3.5679    1.0000 </r>
       <r>    4.1259    1.0000 </r>
       <r>    4.4628    1.0000 </r>
       <r>    4.7185    1.0000 </r>
       <r>    5.8506    1.0000 </r>
       <r>    9.6897    0.0000 </r>
       <r>   12.4703    0.0000 </r>
       <r>   15.3896    0.0000 </r>
       <r>   15.7580    0.0000 </r>
       <r>   15.8440    0.0000 </r>
       <r>   17.7983    0.0000 </r>
       <r>   18.2833    0.0000 </r>
       <r>   18.6845    0.0000 </r>
       <r>   21.6181    0.0000 </r>
       <r>   22.4325    0.0000 </r>
       <r>   24.4228    0.0000 </r>
       <r>   27.5217    0.0000 </r>
       <r>   27.7672    0.0000 </r>
       <r>   28.8501    0.0000 </r>
       <r>   30.2855    0.0000 </r>
       <r>   32.3112    0.0000 </r>
       <r>   33.3057    0.0000 </r>
       <r>   33.4104    0.0000 </r>
       <r>   35.2643    0.0000 </r>
      </set>
      <set comment="kpoint 7">
       <r> -105.4652    1.0000 </r>
       <r>  -63.1592    1.0000 </r>
       <r>  -62.9705    1.0000 </r>
       <r>  -62.9606    1.0000 </r>
       <r>  -13.2243    1.0000 </r>
       <r>  -12.9575    1.0000 </r>
       <r>   -2.1422    1.0000 </r>
       <r>   -1.1639    1.0000 </r>
       <r>   -0.3504    1.0000 </r>
       <r>    1.0379    1.0000 </r>
       <r>    1.1650    1.0000 </r>
       <r>    1.8033    1.0000 </r>
       <r>    3.5423    1.0000 </r>
       <r>    4.1191    1.0000 </r>
       <r>    4.4854    1.0000 </r>
       <r>    4.7289    1.0000 </r>
       <r>    5.8517    1.0000 </r>
       <r>    9.6227    0.0000 </r>
       <r>   12.5025    0.0000 </r>
       <r>   15.3371    0.0000 </r>
       <r>   15.6710    0.0000 </r>
       <r>   15.9197    0.0000 </r>
       <r>   17.8076    0.0000 </r>
       <r>   18.2716    0.0000 </r>
       <r>   18.7174    0.0000 </r>
       <r>   21.6149    0.0000 </r>
       <r>   22.4906    0.0000 </r>
       <r>   24.8031    0.0000 </r>
       <r>   27.6385    0.0000 </r>
       <r>   27.7770    0.0000 </r>
       <r>   28.9012    0.0000 </r>
       <r>   30.0467    0.0000 </r>
       <r>   32.2598    0.0000 </r>
       <r>   33.3123    0.0000 </r>
       <r>   33.4614    0.0000 </r>
       <r>   35.1133    0.0000 </r>
      </set>
      <set comment="kpoint 8">
       <r> -105.4652    1.0000 </r>
       <r>  -63.1592    1.0000 </r>
       <r>  -62.9708    1.0000 </r>
       <r>  -62.9601    1.0000 </r>
       <r>  -13.2470    1.0000 </r>
       <r>  -12.9554    1.0000 </r>
       <r>   -2.1923    1.0000 </r>
       <r>   -1.1986    1.0000 </r>
       <r>   -0.2329    1.0000 </r>
       <r>    1.1019    1.0000 </r>
       <r>    1.1730    1.0000 </r>
       <r>    1.8121    1.0000 </r>
       <r>    3.4920    1.0000 </r>
       <r>    4.1066    1.0000 </r>
       <r>    4.5288    1.0000 </r>
       <r>    4.7494    1.0000 </r>
       <r>    5.8517    1.0000 </r>
       <r>    9.4883    0.0000 </r>
       <r>   12.5675    0.0000 </r>
       <r>   15.2217    0.0000 </r>
       <r>   15.4959    0.0000 </r>
       <r>   16.0854    0.0000 </r>
       <r>   17.8242    0.0000 </r>
       <r>   18.2878    0.0000 </r>
       <r>   18.7821    0.0000 </r>
       <r>   21.6154    0.0000 </r>
       <r>   22.6104    0.0000 </r>
       <r>   24.9003    0.0000 </r>
       <r>   27.6855    0.0000 </r>
       <r>   27.9202    0.0000 </r>
       <r>   29.0574    0.0000 </r>
       <r>   29.5912    0.0000 </r>
       <r>   32.1523    0.0000 </r>
       <r>   33.3324    0.0000 </r>
       <r>   33.6479    0.0000 </r>
       <r>   34.7840    0.0000 </r>
      </set>
      <set comment="kpoint 9">
       <r> -105.4652    1.0000 </r>
       <r>  -63.1593    1.0000 </r>
       <r>  -62.9709    1.0000 </r>
       <r>  -62.9598    1.0000 </r>
       <r>  -13.2597    1.0000 </r>
       <r>  -12.9538    1.0000 </r>
       <r>   -2.2149    1.0000 </r>
       <r>   -1.2152    1.0000 </r>
       <r>   -0.1750    1.0000 </r>
       <r>    1.1312    1.0000 </r>
       <r>    1.1774    1.0000 </r>
       <r>    1.8201    1.0000 </r>
       <r>    3.4678    1.0000 </r>
       <r>    4.1009    1.0000 </r>
       <r>    4.5496    1.0000 </r>
       <r>    4.7595    1.0000 </r>
       <r>    5.8503    1.0000 </r>
       <r>    9.4221    0.0000 </r>
       <r>   12.5996    0.0000 </r>
       <r>   15.1624    0.0000 </r>
       <r>   15.4099    0.0000 </r>
       <r>   16.1702    0.0000 </r>
       <r>   17.8330    0.0000 </r>
       <r>   18.3014    0.0000 </r>
       <r>   18.8089    0.0000 </r>
       <r>   21.6195    0.0000 </r>
       <r>   22.6671    0.0000 </r>
       <r>   24.9533    0.0000 </r>
       <r>   27.6495    0.0000 </r>
       <r>   28.0172    0.0000 </r>
       <r>   29.1546    0.0000 </r>
       <r>   29.3850    0.0000 </r>
       <r>   32.0983    0.0000 </r>
       <r>   33.2824    0.0000 </r>
       <r>   33.7050    0.0000 </r>
       <r>   34.5938    0.0000 </r>
      </set>
      <set comment="kpoint 10">
       <r> -105.4652    1.0000 </r>
       <r>  -63.1592    1.0000 </r>
       <r>  -62.9706    1.0000 </r>
       <r>  -62.9603    1.0000 </r>
       <r>  -13.2373    1.0000 </r>
       <r>  -12.9544    1.0000 </r>
       <r>   -2.1665    1.0000 </r>
       <r>   -1.1883    1.0000 </r>
       <r>   -0.2874    1.0000 </r>
       <r>    1.0581    1.0000 </r>
       <r>    1.1783    1.0000 </r>
       <r>    1.8118    1.0000 </r>
       <r>    3.5176    1.0000 </r>
       <r>    4.1177    1.0000 </r>
       <r>    4.5072    1.0000 </r>
       <r>    4.7355    1.0000 </r>
       <r>    5.8504    1.0000 </r>
       <r>    9.5513    0.0000 </r>
       <r>   12.5340    0.0000 </r>
       <r>   15.2512    0.0000 </r>
       <r>   15.6225    0.0000 </r>
       <r>   16.0048    0.0000 </r>
       <r>   17.8169    0.0000 </r>
       <r>   18.2633    0.0000 </r>
       <r>   18.7681    0.0000 </r>
       <r>   21.5833    0.0000 </r>
       <r>   22.5910    0.0000 </r>
       <r>   24.8464    0.0000 </r>
       <r>   27.4938    0.0000 </r>
       <r>   27.8691    0.0000 </r>
       <r>   29.1263    0.0000 </r>
       <r>   29.8250    0.0000 </r>
       <r>   32.1866    0.0000 </r>
       <r>   33.2575    0.0000 </r>
       <r>   33.5370    0.0000 </r>
       <r>   34.9699    0.0000 </r>
      </set>
      <set comment="kpoint 11">
       <r> -105.4652    1.0000 </r>
       <r>  -63.1592    1.0000 </r>
       <r>  -62.9706    1.0000 </r>
       <r>  -62.9603    1.0000 </r>
       <r>  -13.2357    1.0000 </r>
       <r>  -12.9561    1.0000 </r>
       <r>   -2.1676    1.0000 </r>
       <r>   -1.1831    1.0000 </r>
       <r>   -0.2905    1.0000 </r>
       <r>    1.0674    1.0000 </r>
       <r>    1.1714    1.0000 </r>
       <r>    1.8079    1.0000 </r>
       <r>    3.5171    1.0000 </r>
       <r>    4.1139    1.0000 </r>
       <r>    4.5073    1.0000 </r>
       <r>    4.7383    1.0000 </r>
       <r>    5.8517    1.0000 </r>
       <r>    9.5543    0.0000 </r>
       <r>   12.5348    0.0000 </r>
       <r>   15.2725    0.0000 </r>
       <r>   15.5936    0.0000 </r>
       <r>   16.0022    0.0000 </r>
       <r>   17.8163    0.0000 </r>
       <r>   18.2804    0.0000 </r>
       <r>   18.7518    0.0000 </r>
       <r>   21.6064    0.0000 </r>
       <r>   22.5615    0.0000 </r>
       <r>   24.8492    0.0000 </r>
       <r>   27.6320    0.0000 </r>
       <r>   27.8471    0.0000 </r>
       <r>   29.0126    0.0000 </r>
       <r>   29.8169    0.0000 </r>
       <r>   32.2018    0.0000 </r>
       <r>   33.2927    0.0000 </r>
       <r>   33.5348    0.0000 </r>
       <r>   34.9260    0.0000 </r>
      </set>
      <set comment="kpoint 12">
       <r> -105.4652    1.0000 </r>
       <r>  -63.1592    1.0000 </r>
       <r>  -62.9706    1.0000 </r>
       <r>  -62.9603    1.0000 </r>
       <r>  -13.2358    1.0000 </r>
       <r>  -12.9561    1.0000 </r>
       <r>   -2.1676    1.0000 </r>
       <r>   -1.1831    1.0000 </r>
       <r>   -0.2905    1.0000 </r>
       <r>    1.0673    1.0000 </r>
       <r>    1.1715    1.0000 </r>
       <r>    1.8079    1.0000 </r>
       <r>    3.5171    1.0000 </r>
       <r>    4.1139    1.0000 </r>
       <r>    4.5073    1.0000 </r>
       <r>    4.7383    1.0000 </r>
       <r>    5.8516    1.0000 </r>
       <r>    9.5543    0.0000 </r>
       <r>   12.5347    0.0000 </r>
       <r>   15.2723    0.0000 </r>
       <r>   15.5939    0.0000 </r>
       <r>   16.0022    0.0000 </r>
       <r>   17.8148    0.0000 </r>
       <r>   18.2771    0.0000 </r>
       <r>   18.7564    0.0000 </r>
       <r>   21.6063    0.0000 </r>
       <r>   22.5616    0.0000 </r>
       <r>   24.8252    0.0000 </r>
       <r>   27.6297    0.0000 </r>
       <r>   27.8482    0.0000 </r>
       <r>   29.0136    0.0000 </r>
       <r>   29.8169    0.0000 </r>
       <r>   32.2016    0.0000 </r>
       <r>   33.2936    0.0000 </r>
       <r>   33.5346    0.0000 </r>
       <r>   34.9256    0.0000 </r>
      </set>
      <set comment="kpoint 13">
       <r> -105.4652    1.0000 </r>
       <r>  -63.1592    1.0000 </r>
       <r>  -62.9706    1.0000 </r>
       <r>  -62.9603    1.0000 </r>
       <r>  -13.2373    1.0000 </r>
       <r>  -12.9544    1.0000 </r>
       <r>   -2.1664    1.0000 </r>
       <r>   -1.1883    1.0000 </r>
       <r>   -0.2873    1.0000 </r>
       <r>    1.0580    1.0000 </r>
       <r>    1.1784    1.0000 </r>
       <r>    1.8119    1.0000 </r>
       <r>    3.5176    1.0000 </r>
       <r>    4.1177    1.0000 </r>
       <r>    4.5072    1.0000 </r>
       <r>    4.7354    1.0000 </r>
       <r>    5.8503    1.0000 </r>
       <r>    9.5513    0.0000 </r>
       <r>   12.5339    0.0000 </r>
       <r>   15.2509    0.0000 </r>
       <r>   15.6229    0.0000 </r>
       <r>   16.0048    0.0000 </r>
       <r>   17.8169    0.0000 </r>
       <r>   18.2685    0.0000 </r>
       <r>   18.7688    0.0000 </r>
       <r>   21.5830    0.0000 </r>
       <r>   22.5909    0.0000 </r>
       <r>   24.7110    0.0000 </r>
       <r>   27.4910    0.0000 </r>
       <r>   27.8700    0.0000 </r>
       <r>   29.1282    0.0000 </r>
       <r>   29.8252    0.0000 </r>
       <r>   32.1864    0.0000 </r>
       <r>   33.2930    0.0000 </r>
       <r>   33.5365    0.0000 </r>
       <r>   35.0066    0.0000 </r>
      </set>
      <set comment="kpoint 14">
       <r> -105.4652    1.0000 </r>
       <r>  -63.1592    1.0000 </r>
       <r>  -62.9703    1.0000 </r>
       <r>  -62.9605    1.0000 </r>
       <r>  -13.2433    1.0000 </r>
       <r>  -12.9481    1.0000 </r>
       <r>   -2.1363    1.0000 </r>
       <r>   -1.1662    1.0000 </r>
       <r>   -0.3377    1.0000 </r>
       <r>    1.0505    1.0000 </r>
       <r>    1.1666    1.0000 </r>
       <r>    1.8046    1.0000 </r>
       <r>    3.5405    1.0000 </r>
       <r>    4.1210    1.0000 </r>
       <r>    4.4822    1.0000 </r>
       <r>    4.7311    1.0000 </r>
       <r>    5.8420    1.0000 </r>
       <r>    9.5860    0.0000 </r>
       <r>   12.5597    0.0000 </r>
       <r>   15.3395    0.0000 </r>
       <r>   15.6493    0.0000 </r>
       <r>   15.9403    0.0000 </r>
       <r>   17.7996    0.0000 </r>
       <r>   18.2790    0.0000 </r>
       <r>   18.7140    0.0000 </r>
       <r>   21.5911    0.0000 </r>
       <r>   22.5231    0.0000 </r>
       <r>   24.8226    0.0000 </r>
       <r>   27.3729    0.0000 </r>
       <r>   28.0557    0.0000 </r>
       <r>   28.9089    0.0000 </r>
       <r>   30.0133    0.0000 </r>
       <r>   32.2279    0.0000 </r>
       <r>   33.2925    0.0000 </r>
       <r>   33.5548    0.0000 </r>
       <r>   35.0501    0.0000 </r>
      </set>
      <set comment="kpoint 15">
       <r> -105.4652    1.0000 </r>
       <r>  -63.1592    1.0000 </r>
       <r>  -62.9703    1.0000 </r>
       <r>  -62.9607    1.0000 </r>
       <r>  -13.2272    1.0000 </r>
       <r>  -12.9537    1.0000 </r>
       <r>   -2.1267    1.0000 </r>
       <r>   -1.1566    1.0000 </r>
       <r>   -0.3736    1.0000 </r>
       <r>    1.0268    1.0000 </r>
       <r>    1.1637    1.0000 </r>
       <r>    1.8029    1.0000 </r>
       <r>    3.5540    1.0000 </r>
       <r>    4.1231    1.0000 </r>
       <r>    4.4732    1.0000 </r>
       <r>    4.7248    1.0000 </r>
       <r>    5.8474    1.0000 </r>
       <r>    9.6396    0.0000 </r>
       <r>   12.5109    0.0000 </r>
       <r>   15.3645    0.0000 </r>
       <r>   15.7040    0.0000 </r>
       <r>   15.8906    0.0000 </r>
       <r>   17.7998    0.0000 </r>
       <r>   18.2822    0.0000 </r>
       <r>   18.7016    0.0000 </r>
       <r>   21.6055    0.0000 </r>
       <r>   22.4768    0.0000 </r>
       <r>   24.7903    0.0000 </r>
       <r>   27.4500    0.0000 </r>
       <r>   27.9125    0.0000 </r>
       <r>   28.8769    0.0000 </r>
       <r>   30.1481    0.0000 </r>
       <r>   32.2713    0.0000 </r>
       <r>   33.2823    0.0000 </r>
       <r>   33.4800    0.0000 </r>
       <r>   35.1713    0.0000 </r>
      </set>
      <set comment="kpoint 16">
       <r> -105.4652    1.0000 </r>
       <r>  -63.1592    1.0000 </r>
       <r>  -62.9702    1.0000 </r>
       <r>  -62.9611    1.0000 </r>
       <r>  -13.2048    1.0000 </r>
       <r>  -12.9604    1.0000 </r>
       <r>   -2.1005    1.0000 </r>
       <r>   -1.1361    1.0000 </r>
       <r>   -0.4443    1.0000 </r>
       <r>    0.9825    1.0000 </r>
       <r>    1.1586    1.0000 </r>
       <r>    1.8022    1.0000 </r>
       <r>    3.5824    1.0000 </r>
       <r>    4.1293    1.0000 </r>
       <r>    4.4510    1.0000 </r>
       <r>    4.7123    1.0000 </r>
       <r>    5.8517    1.0000 </r>
       <r>    9.7353    0.0000 </r>
       <r>   12.4392    0.0000 </r>
       <r>   15.4139    0.0000 </r>
       <r>   15.8004    0.0000 </r>
       <r>   15.8124    0.0000 </r>
       <r>   17.7952    0.0000 </r>
       <r>   18.2844    0.0000 </r>
       <r>   18.6668    0.0000 </r>
       <r>   21.6277    0.0000 </r>
       <r>   22.3918    0.0000 </r>
       <r>   24.7350    0.0000 </r>
       <r>   27.5817    0.0000 </r>
       <r>   27.6262    0.0000 </r>
       <r>   28.8294    0.0000 </r>
       <r>   30.4247    0.0000 </r>
       <r>   32.3463    0.0000 </r>
       <r>   33.3306    0.0000 </r>
       <r>   33.3467    0.0000 </r>
       <r>   35.3536    0.0000 </r>
      </set>
      <set comment="kpoint 17">
       <r> -105.4652    1.0000 </r>
       <r>  -63.1592    1.0000 </r>
       <r>  -62.9701    1.0000 </r>
       <r>  -62.9613    1.0000 </r>
       <r>  -13.1990    1.0000 </r>
       <r>  -12.9608    1.0000 </r>
       <r>   -2.0840    1.0000 </r>
       <r>   -1.1261    1.0000 </r>
       <r>   -0.4782    1.0000 </r>
       <r>    0.9621    1.0000 </r>
       <r>    1.1563    1.0000 </r>
       <r>    1.8030    1.0000 </r>
       <r>    3.5974    1.0000 </r>
       <r>    4.1334    1.0000 </r>
       <r>    4.4379    1.0000 </r>
       <r>    4.7063    1.0000 </r>
       <r>    5.8509    1.0000 </r>
       <r>    9.7749    0.0000 </r>
       <r>   12.4184    0.0000 </r>
       <r>   15.4359    0.0000 </r>
       <r>   15.7633    0.0000 </r>
       <r>   15.8646    0.0000 </r>
       <r>   17.7903    0.0000 </r>
       <r>   18.2817    0.0000 </r>
       <r>   18.6453    0.0000 </r>
       <r>   21.6320    0.0000 </r>
       <r>   22.3565    0.0000 </r>
       <r>   24.7056    0.0000 </r>
       <r>   27.4697    0.0000 </r>
       <r>   27.6498    0.0000 </r>
       <r>   28.8157    0.0000 </r>
       <r>   30.5651    0.0000 </r>
       <r>   32.3752    0.0000 </r>
       <r>   33.2910    0.0000 </r>
       <r>   33.3859    0.0000 </r>
       <r>   35.4562    0.0000 </r>
      </set>
      <set comment="kpoint 18">
       <r> -105.4652    1.0000 </r>
       <r>  -63.1592    1.0000 </r>
       <r>  -62.9705    1.0000 </r>
       <r>  -62.9602    1.0000 </r>
       <r>  -13.2489    1.0000 </r>
       <r>  -12.9502    1.0000 </r>
       <r>   -2.1649    1.0000 </r>
       <r>   -1.1832    1.0000 </r>
       <r>   -0.2807    1.0000 </r>
       <r>    1.0804    1.0000 </r>
       <r>    1.1705    1.0000 </r>
       <r>    1.8080    1.0000 </r>
       <r>    3.5146    1.0000 </r>
       <r>    4.1137    1.0000 </r>
       <r>    4.5063    1.0000 </r>
       <r>    4.7412    1.0000 </r>
       <r>    5.8449    1.0000 </r>
       <r>    9.5286    0.0000 </r>
       <r>   12.5745    0.0000 </r>
       <r>   15.2790    0.0000 </r>
       <r>   15.5651    0.0000 </r>
       <r>   16.0192    0.0000 </r>
       <r>   17.8118    0.0000 </r>
       <r>   18.2865    0.0000 </r>
       <r>   18.7507    0.0000 </r>
       <r>   21.6000    0.0000 </r>
       <r>   22.5727    0.0000 </r>
       <r>   24.8646    0.0000 </r>
       <r>   27.4771    0.0000 </r>
       <r>   28.0556    0.0000 </r>
       <r>   28.9804    0.0000 </r>
       <r>   29.7821    0.0000 </r>
       <r>   32.1846    0.0000 </r>
       <r>   33.2768    0.0000 </r>
       <r>   33.5988    0.0000 </r>
       <r>   34.8904    0.0000 </r>
      </set>
      <set comment="kpoint 19">
       <r> -105.4652    1.0000 </r>
       <r>  -63.1592    1.0000 </r>
       <r>  -62.9705    1.0000 </r>
       <r>  -62.9604    1.0000 </r>
       <r>  -13.2349    1.0000 </r>
       <r>  -12.9547    1.0000 </r>
       <r>   -2.1547    1.0000 </r>
       <r>   -1.1738    1.0000 </r>
       <r>   -0.3156    1.0000 </r>
       <r>    1.0588    1.0000 </r>
       <r>    1.1675    1.0000 </r>
       <r>    1.8052    1.0000 </r>
       <r>    3.5282    1.0000 </r>
       <r>    4.1160    1.0000 </r>
       <r>    4.4965    1.0000 </r>
       <r>    4.7350    1.0000 </r>
       <r>    5.8495    1.0000 </r>
       <r>    9.5774    0.0000 </r>
       <r>   12.5343    0.0000 </r>
       <r>   15.3075    0.0000 </r>
       <r>   15.6184    0.0000 </r>
       <r>   15.9683    0.0000 </r>
       <r>   17.8104    0.0000 </r>
       <r>   18.2844    0.0000 </r>
       <r>   18.7354    0.0000 </r>
       <r>   21.6088    0.0000 </r>
       <r>   22.5321    0.0000 </r>
       <r>   24.8329    0.0000 </r>
       <r>   27.5606    0.0000 </r>
       <r>   27.9174    0.0000 </r>
       <r>   28.9387    0.0000 </r>
       <r>   29.9124    0.0000 </r>
       <r>   32.2241    0.0000 </r>
       <r>   33.2932    0.0000 </r>
       <r>   33.5269    0.0000 </r>
       <r>   34.9918    0.0000 </r>
      </set>
      <set comment="kpoint 20">
       <r> -105.4652    1.0000 </r>
       <r>  -63.1592    1.0000 </r>
       <r>  -62.9704    1.0000 </r>
       <r>  -62.9607    1.0000 </r>
       <r>  -13.2171    1.0000 </r>
       <r>  -12.9585    1.0000 </r>
       <r>   -2.1272    1.0000 </r>
       <r>   -1.1538    1.0000 </r>
       <r>   -0.3847    1.0000 </r>
       <r>    1.0180    1.0000 </r>
       <r>    1.1627    1.0000 </r>
       <r>    1.8023    1.0000 </r>
       <r>    3.5569    1.0000 </r>
       <r>    4.1228    1.0000 </r>
       <r>    4.4728    1.0000 </r>
       <r>    4.7229    1.0000 </r>
       <r>    5.8518    1.0000 </r>
       <r>    9.6634    0.0000 </r>
       <r>   12.4802    0.0000 </r>
       <r>   15.3674    0.0000 </r>
       <r>   15.7225    0.0000 </r>
       <r>   15.8740    0.0000 </r>
       <r>   17.8030    0.0000 </r>
       <r>   18.2807    0.0000 </r>
       <r>   18.6993    0.0000 </r>
       <r>   21.6187    0.0000 </r>
       <r>   22.4560    0.0000 </r>
       <r>   24.7774    0.0000 </r>
       <r>   27.6271    0.0000 </r>
       <r>   27.7182    0.0000 </r>
       <r>   28.8692    0.0000 </r>
       <r>   30.1838    0.0000 </r>
       <r>   32.2916    0.0000 </r>
       <r>   33.3190    0.0000 </r>
       <r>   33.4177    0.0000 </r>
       <r>   35.2006    0.0000 </r>
      </set>
      <set comment="kpoint 21">
       <r> -105.4652    1.0000 </r>
       <r>  -63.1592    1.0000 </r>
       <r>  -62.9703    1.0000 </r>
       <r>  -62.9610    1.0000 </r>
       <r>  -13.2137    1.0000 </r>
       <r>  -12.9575    1.0000 </r>
       <r>   -2.1100    1.0000 </r>
       <r>   -1.1438    1.0000 </r>
       <r>   -0.4180    1.0000 </r>
       <r>    0.9991    1.0000 </r>
       <r>    1.1605    1.0000 </r>
       <r>    1.8021    1.0000 </r>
       <r>    3.5720    1.0000 </r>
       <r>    4.1271    1.0000 </r>
       <r>    4.4589    1.0000 </r>
       <r>    4.7169    1.0000 </r>
       <r>    5.8500    1.0000 </r>
       <r>    9.6986    0.0000 </r>
       <r>   12.4680    0.0000 </r>
       <r>   15.3977    0.0000 </r>
       <r>   15.7697    0.0000 </r>
       <r>   15.8348    0.0000 </r>
       <r>   17.7967    0.0000 </r>
       <r>   18.2844    0.0000 </r>
       <r>   18.6662    0.0000 </r>
       <r>   21.6161    0.0000 </r>
       <r>   22.4175    0.0000 </r>
       <r>   24.7554    0.0000 </r>
       <r>   27.4846    0.0000 </r>
       <r>   27.7827    0.0000 </r>
       <r>   28.8440    0.0000 </r>
       <r>   30.3229    0.0000 </r>
       <r>   32.3175    0.0000 </r>
       <r>   33.2986    0.0000 </r>
       <r>   33.4124    0.0000 </r>
       <r>   35.2597    0.0000 </r>
      </set>
      <set comment="kpoint 22">
       <r> -105.4652    1.0000 </r>
       <r>  -63.1593    1.0000 </r>
       <r>  -62.9709    1.0000 </r>
       <r>  -62.9597    1.0000 </r>
       <r>  -13.2626    1.0000 </r>
       <r>  -12.9531    1.0000 </r>
       <r>   -2.2177    1.0000 </r>
       <r>   -1.2175    1.0000 </r>
       <r>   -0.1661    1.0000 </r>
       <r>    1.1357    1.0000 </r>
       <r>    1.1784    1.0000 </r>
       <r>    1.8216    1.0000 </r>
       <r>    3.4642    1.0000 </r>
       <r>    4.1002    1.0000 </r>
       <r>    4.5525    1.0000 </r>
       <r>    4.7610    1.0000 </r>
       <r>    5.8494    1.0000 </r>
       <r>    9.4111    0.0000 </r>
       <r>   12.6069    0.0000 </r>
       <r>   15.1539    0.0000 </r>
       <r>   15.3964    0.0000 </r>
       <r>   16.1836    0.0000 </r>
       <r>   17.8339    0.0000 </r>
       <r>   18.3042    0.0000 </r>
       <r>   18.8188    0.0000 </r>
       <r>   21.6197    0.0000 </r>
       <r>   22.6761    0.0000 </r>
       <r>   24.9623    0.0000 </r>
       <r>   27.6269    0.0000 </r>
       <r>   28.0464    0.0000 </r>
       <r>   29.1681    0.0000 </r>
       <r>   29.3573    0.0000 </r>
       <r>   32.0893    0.0000 </r>
       <r>   33.2785    0.0000 </r>
       <r>   33.7222    0.0000 </r>
       <r>   34.5685    0.0000 </r>
      </set>
      <set comment="kpoint 23">
       <r> -105.4652    1.0000 </r>
       <r>  -63.1592    1.0000 </r>
       <r>  -62.9709    1.0000 </r>
       <r>  -62.9599    1.0000 </r>
       <r>  -13.2531    1.0000 </r>
       <r>  -12.9551    1.0000 </r>
       <r>   -2.2063    1.0000 </r>
       <r>   -1.2084    1.0000 </r>
       <r>   -0.1995    1.0000 </r>
       <r>    1.1187    1.0000 </r>
       <r>    1.1753    1.0000 </r>
       <r>    1.8164    1.0000 </r>
       <r>    3.4778    1.0000 </r>
       <r>    4.1030    1.0000 </r>
       <r>    4.5414    1.0000 </r>
       <r>    4.7552    1.0000 </r>
       <r>    5.8518    1.0000 </r>
       <r>    9.4513    0.0000 </r>
       <r>   12.5829    0.0000 </r>
       <r>   15.1868    0.0000 </r>
       <r>   15.4465    0.0000 </r>
       <r>   16.1339    0.0000 </r>
       <r>   17.8299    0.0000 </r>
       <r>   18.2965    0.0000 </r>
       <r>   18.8019    0.0000 </r>
       <r>   21.6188    0.0000 </r>
       <r>   22.6423    0.0000 </r>
       <r>   24.9195    0.0000 </r>
       <r>   27.6923    0.0000 </r>
       <r>   27.9521    0.0000 </r>
       <r>   29.1137    0.0000 </r>
       <r>   29.4683    0.0000 </r>
       <r>   32.1221    0.0000 </r>
       <r>   33.2911    0.0000 </r>
       <r>   33.6684    0.0000 </r>
       <r>   34.6609    0.0000 </r>
      </set>
      <set comment="kpoint 24">
       <r> -105.4652    1.0000 </r>
       <r>  -63.1592    1.0000 </r>
       <r>  -62.9707    1.0000 </r>
       <r>  -62.9602    1.0000 </r>
       <r>  -13.2445    1.0000 </r>
       <r>  -12.9539    1.0000 </r>
       <r>   -2.1759    1.0000 </r>
       <r>   -1.1883    1.0000 </r>
       <r>   -0.2661    1.0000 </r>
       <r>    1.0857    1.0000 </r>
       <r>    1.1710    1.0000 </r>
       <r>    1.8089    1.0000 </r>
       <r>    3.5069    1.0000 </r>
       <r>    4.1108    1.0000 </r>
       <r>    4.5149    1.0000 </r>
       <r>    4.7437    1.0000 </r>
       <r>    5.8494    1.0000 </r>
       <r>    9.5211    0.0000 </r>
       <r>   12.5612    0.0000 </r>
       <r>   15.2585    0.0000 </r>
       <r>   15.5446    0.0000 </r>
       <r>   16.0385    0.0000 </r>
       <r>   17.8177    0.0000 </r>
       <r>   18.2827    0.0000 </r>
       <r>   18.7595    0.0000 </r>
       <r>   21.6093    0.0000 </r>
       <r>   22.5809    0.0000 </r>
       <r>   24.8735    0.0000 </r>
       <r>   27.5914    0.0000 </r>
       <r>   27.9670    0.0000 </r>
       <r>   29.0045    0.0000 </r>
       <r>   29.7198    0.0000 </r>
       <r>   32.1788    0.0000 </r>
       <r>   33.3229    0.0000 </r>
       <r>   33.5879    0.0000 </r>
       <r>   34.8846    0.0000 </r>
      </set>
      <set comment="kpoint 25">
       <r> -105.4652    1.0000 </r>
       <r>  -63.1592    1.0000 </r>
       <r>  -62.9704    1.0000 </r>
       <r>  -62.9603    1.0000 </r>
       <r>  -13.2453    1.0000 </r>
       <r>  -12.9505    1.0000 </r>
       <r>   -2.1572    1.0000 </r>
       <r>   -1.1780    1.0000 </r>
       <r>   -0.2986    1.0000 </r>
       <r>    1.0705    1.0000 </r>
       <r>    1.1692    1.0000 </r>
       <r>    1.8066    1.0000 </r>
       <r>    3.5223    1.0000 </r>
       <r>    4.1157    1.0000 </r>
       <r>    4.4996    1.0000 </r>
       <r>    4.7380    1.0000 </r>
       <r>    5.8452    1.0000 </r>
       <r>    9.5489    0.0000 </r>
       <r>   12.5647    0.0000 </r>
       <r>   15.2968    0.0000 </r>
       <r>   15.5920    0.0000 </r>
       <r>   15.9937    0.0000 </r>
       <r>   17.8091    0.0000 </r>
       <r>   18.2859    0.0000 </r>
       <r>   18.7404    0.0000 </r>
       <r>   21.5990    0.0000 </r>
       <r>   22.5562    0.0000 </r>
       <r>   24.8503    0.0000 </r>
       <r>   27.4675    0.0000 </r>
       <r>   28.0358    0.0000 </r>
       <r>   28.9567    0.0000 </r>
       <r>   29.8523    0.0000 </r>
       <r>   32.2004    0.0000 </r>
       <r>   33.2740    0.0000 </r>
       <r>   33.5814    0.0000 </r>
       <r>   34.9725    0.0000 </r>
      </set>
      <set comment="kpoint 26">
       <r> -105.4652    1.0000 </r>
       <r>  -63.1593    1.0000 </r>
       <r>  -62.9710    1.0000 </r>
       <r>  -62.9594    1.0000 </r>
       <r>  -13.2707    1.0000 </r>
       <r>  -12.9539    1.0000 </r>
       <r>   -2.2418    1.0000 </r>
       <r>   -1.2344    1.0000 </r>
       <r>   -0.1095    1.0000 </r>
       <r>    1.1606    1.0000 </r>
       <r>    1.1824    1.0000 </r>
       <r>    1.8320    1.0000 </r>
       <r>    3.4399    1.0000 </r>
       <r>    4.0940    1.0000 </r>
       <r>    4.5745    1.0000 </r>
       <r>    4.7707    1.0000 </r>
       <r>    5.8507    1.0000 </r>
       <r>    9.3521    0.0000 </r>
       <r>   12.6240    0.0000 </r>
       <r>   15.0912    0.0000 </r>
       <r>   15.3136    0.0000 </r>
       <r>   16.2655    0.0000 </r>
       <r>   17.8447    0.0000 </r>
       <r>   18.3218    0.0000 </r>
       <r>   18.8490    0.0000 </r>
       <r>   21.6316    0.0000 </r>
       <r>   22.7263    0.0000 </r>
       <r>   25.0180    0.0000 </r>
       <r>   27.6588    0.0000 </r>
       <r>   28.0437    0.0000 </r>
       <r>   29.1651    0.0000 </r>
       <r>   29.2903    0.0000 </r>
       <r>   32.0399    0.0000 </r>
       <r>   33.2773    0.0000 </r>
       <r>   33.8328    0.0000 </r>
       <r>   34.4115    0.0000 </r>
      </set>
      <set comment="kpoint 27">
       <r> -105.4652    1.0000 </r>
       <r>  -63.1593    1.0000 </r>
       <r>  -62.9710    1.0000 </r>
       <r>  -62.9596    1.0000 </r>
       <r>  -13.2635    1.0000 </r>
       <r>  -12.9547    1.0000 </r>
       <r>   -2.2296    1.0000 </r>
       <r>   -1.2251    1.0000 </r>
       <r>   -0.1422    1.0000 </r>
       <r>    1.1461    1.0000 </r>
       <r>    1.1793    1.0000 </r>
       <r>    1.8255    1.0000 </r>
       <r>    3.4535    1.0000 </r>
       <r>    4.0971    1.0000 </r>
       <r>    4.5628    1.0000 </r>
       <r>    4.7650    1.0000 </r>
       <r>    5.8517    1.0000 </r>
       <r>    9.3887    0.0000 </r>
       <r>   12.6076    0.0000 </r>
       <r>   15.1256    0.0000 </r>
       <r>   15.3620    0.0000 </r>
       <r>   16.2174    0.0000 </r>
       <r>   17.8393    0.0000 </r>
       <r>   18.3008    0.0000 </r>
       <r>   18.8339    0.0000 </r>
       <r>   21.6266    0.0000 </r>
       <r>   22.6959    0.0000 </r>
       <r>   24.9818    0.0000 </r>
       <r>   27.6903    0.0000 </r>
       <r>   28.0006    0.0000 </r>
       <r>   29.2203    0.0000 </r>
       <r>   29.2708    0.0000 </r>
       <r>   32.0702    0.0000 </r>
       <r>   33.2840    0.0000 </r>
       <r>   33.7455    0.0000 </r>
       <r>   34.5351    0.0000 </r>
      </set>
      <set comment="kpoint 28">
       <r> -105.4652    1.0000 </r>
       <r>  -63.1593    1.0000 </r>
       <r>  -62.9708    1.0000 </r>
       <r>  -62.9600    1.0000 </r>
       <r>  -13.2593    1.0000 </r>
       <r>  -12.9512    1.0000 </r>
       <r>   -2.1978    1.0000 </r>
       <r>   -1.2047    1.0000 </r>
       <r>   -0.2077    1.0000 </r>
       <r>    1.1169    1.0000 </r>
       <r>    1.1757    1.0000 </r>
       <r>    1.8157    1.0000 </r>
       <r>    3.4826    1.0000 </r>
       <r>    4.1053    1.0000 </r>
       <r>    4.5350    1.0000 </r>
       <r>    4.7539    1.0000 </r>
       <r>    5.8466    1.0000 </r>
       <r>    9.4517    0.0000 </r>
       <r>   12.6006    0.0000 </r>
       <r>   15.2013    0.0000 </r>
       <r>   15.4571    0.0000 </r>
       <r>   16.1241    0.0000 </r>
       <r>   17.8249    0.0000 </r>
       <r>   18.2950    0.0000 </r>
       <r>   18.7921    0.0000 </r>
       <r>   21.6092    0.0000 </r>
       <r>   22.6388    0.0000 </r>
       <r>   24.8995    0.0000 </r>
       <r>   27.5560    0.0000 </r>
       <r>   28.0762    0.0000 </r>
       <r>   29.0930    0.0000 </r>
       <r>   29.5059    0.0000 </r>
       <r>   32.1228    0.0000 </r>
       <r>   33.3076    0.0000 </r>
       <r>   33.6791    0.0000 </r>
       <r>   34.7244    0.0000 </r>
      </set>
      <set comment="kpoint 29">
       <r> -105.4652    1.0000 </r>
       <r>  -63.1592    1.0000 </r>
       <r>  -62.9705    1.0000 </r>
       <r>  -62.9600    1.0000 </r>
       <r>  -13.2621    1.0000 </r>
       <r>  -12.9469    1.0000 </r>
       <r>   -2.1783    1.0000 </r>
       <r>   -1.1940    1.0000 </r>
       <r>   -0.2400    1.0000 </r>
       <r>    1.1036    1.0000 </r>
       <r>    1.1741    1.0000 </r>
       <r>    1.8122    1.0000 </r>
       <r>    3.4981    1.0000 </r>
       <r>    4.1105    1.0000 </r>
       <r>    4.5190    1.0000 </r>
       <r>    4.7484    1.0000 </r>
       <r>    5.8409    1.0000 </r>
       <r>    9.4766    0.0000 </r>
       <r>   12.6111    0.0000 </r>
       <r>   15.2420    0.0000 </r>
       <r>   15.5034    0.0000 </r>
       <r>   16.0794    0.0000 </r>
       <r>   17.8154    0.0000 </r>
       <r>   18.2665    0.0000 </r>
       <r>   18.7541    0.0000 </r>
       <r>   21.5959    0.0000 </r>
       <r>   22.6175    0.0000 </r>
       <r>   24.9022    0.0000 </r>
       <r>   27.4401    0.0000 </r>
       <r>   28.1489    0.0000 </r>
       <r>   29.0360    0.0000 </r>
       <r>   29.6318    0.0000 </r>
       <r>   32.1425    0.0000 </r>
       <r>   33.2871    0.0000 </r>
       <r>   33.6673    0.0000 </r>
       <r>   34.8294    0.0000 </r>
      </set>
      <set comment="kpoint 30">
       <r> -105.4652    1.0000 </r>
       <r>  -63.1592    1.0000 </r>
       <r>  -62.9706    1.0000 </r>
       <r>  -62.9600    1.0000 </r>
       <r>  -13.2539    1.0000 </r>
       <r>  -12.9534    1.0000 </r>
       <r>   -2.1893    1.0000 </r>
       <r>   -1.2085    1.0000 </r>
       <r>   -0.2118    1.0000 </r>
       <r>    1.0887    1.0000 </r>
       <r>    1.1885    1.0000 </r>
       <r>    1.8105    1.0000 </r>
       <r>    3.4898    1.0000 </r>
       <r>    4.1147    1.0000 </r>
       <r>    4.5298    1.0000 </r>
       <r>    4.7477    1.0000 </r>
       <r>    5.8502    1.0000 </r>
       <r>    9.4533    0.0000 </r>
       <r>   12.5978    0.0000 </r>
       <r>   15.1804    0.0000 </r>
       <r>   15.5277    0.0000 </r>
       <r>   16.1155    0.0000 </r>
       <r>   17.8239    0.0000 </r>
       <r>   18.2708    0.0000 </r>
       <r>   18.7940    0.0000 </r>
       <r>   21.5513    0.0000 </r>
       <r>   22.6888    0.0000 </r>
       <r>   24.9092    0.0000 </r>
       <r>   27.6896    0.0000 </r>
       <r>   27.7806    0.0000 </r>
       <r>   29.2057    0.0000 </r>
       <r>   29.5843    0.0000 </r>
       <r>   32.1043    0.0000 </r>
       <r>   33.2008    0.0000 </r>
       <r>   33.6353    0.0000 </r>
       <r>   34.8867    0.0000 </r>
      </set>
      <set comment="kpoint 31">
       <r> -105.4652    1.0000 </r>
       <r>  -63.1592    1.0000 </r>
       <r>  -62.9707    1.0000 </r>
       <r>  -62.9601    1.0000 </r>
       <r>  -13.2439    1.0000 </r>
       <r>  -12.9548    1.0000 </r>
       <r>   -2.1791    1.0000 </r>
       <r>   -1.1988    1.0000 </r>
       <r>   -0.2495    1.0000 </r>
       <r>    1.0729    1.0000 </r>
       <r>    1.1836    1.0000 </r>
       <r>    1.8105    1.0000 </r>
       <r>    3.5034    1.0000 </r>
       <r>    4.1158    1.0000 </r>
       <r>    4.5192    1.0000 </r>
       <r>    4.7416    1.0000 </r>
       <r>    5.8514    1.0000 </r>
       <r>    9.5040    0.0000 </r>
       <r>   12.5615    0.0000 </r>
       <r>   15.2152    0.0000 </r>
       <r>   15.5754    0.0000 </r>
       <r>   16.0593    0.0000 </r>
       <r>   17.8210    0.0000 </r>
       <r>   18.2678    0.0000 </r>
       <r>   18.7824    0.0000 </r>
       <r>   21.5673    0.0000 </r>
       <r>   22.6395    0.0000 </r>
       <r>   24.8758    0.0000 </r>
       <r>   27.6036    0.0000 </r>
       <r>   27.8195    0.0000 </r>
       <r>   29.1678    0.0000 </r>
       <r>   29.6965    0.0000 </r>
       <r>   32.1462    0.0000 </r>
       <r>   33.2285    0.0000 </r>
       <r>   33.5845    0.0000 </r>
       <r>   34.9490    0.0000 </r>
      </set>
      <set comment="kpoint 32">
       <r> -105.4652    1.0000 </r>
       <r>  -63.1592    1.0000 </r>
       <r>  -62.9705    1.0000 </r>
       <r>  -62.9604    1.0000 </r>
       <r>  -13.2343    1.0000 </r>
       <r>  -12.9521    1.0000 </r>
       <r>   -2.1515    1.0000 </r>
       <r>   -1.1771    1.0000 </r>
       <r>   -0.3249    1.0000 </r>
       <r>    1.0443    1.0000 </r>
       <r>    1.1726    1.0000 </r>
       <r>    1.8143    1.0000 </r>
       <r>    3.5323    1.0000 </r>
       <r>    4.1202    1.0000 </r>
       <r>    4.4938    1.0000 </r>
       <r>    4.7295    1.0000 </r>
       <r>    5.8472    1.0000 </r>
       <r>    9.5940    0.0000 </r>
       <r>   12.5162    0.0000 </r>
       <r>   15.2880    0.0000 </r>
       <r>   15.6685    0.0000 </r>
       <r>   15.9525    0.0000 </r>
       <r>   17.8104    0.0000 </r>
       <r>   18.2701    0.0000 </r>
       <r>   18.7523    0.0000 </r>
       <r>   21.5990    0.0000 </r>
       <r>   22.5415    0.0000 </r>
       <r>   24.8203    0.0000 </r>
       <r>   27.3778    0.0000 </r>
       <r>   27.9115    0.0000 </r>
       <r>   29.0908    0.0000 </r>
       <r>   29.9613    0.0000 </r>
       <r>   32.2244    0.0000 </r>
       <r>   33.2837    0.0000 </r>
       <r>   33.4935    0.0000 </r>
       <r>   35.0678    0.0000 </r>
      </set>
      <set comment="kpoint 33">
       <r> -105.4652    1.0000 </r>
       <r>  -63.1592    1.0000 </r>
       <r>  -62.9704    1.0000 </r>
       <r>  -62.9606    1.0000 </r>
       <r>  -13.2348    1.0000 </r>
       <r>  -12.9480    1.0000 </r>
       <r>   -2.1342    1.0000 </r>
       <r>   -1.1657    1.0000 </r>
       <r>   -0.3619    1.0000 </r>
       <r>    1.0316    1.0000 </r>
       <r>    1.1668    1.0000 </r>
       <r>    1.8179    1.0000 </r>
       <r>    3.5476    1.0000 </r>
       <r>    4.1233    1.0000 </r>
       <r>    4.4790    1.0000 </r>
       <r>    4.7235    1.0000 </r>
       <r>    5.8422    1.0000 </r>
       <r>    9.6312    0.0000 </r>
       <r>   12.5089    0.0000 </r>
       <r>   15.3253    0.0000 </r>
       <r>   15.7121    0.0000 </r>
       <r>   15.9041    0.0000 </r>
       <r>   17.8020    0.0000 </r>
       <r>   18.2749    0.0000 </r>
       <r>   18.7339    0.0000 </r>
       <r>   21.6129    0.0000 </r>
       <r>   22.4938    0.0000 </r>
       <r>   24.7979    0.0000 </r>
       <r>   27.2582    0.0000 </r>
       <r>   27.9441    0.0000 </r>
       <r>   29.0650    0.0000 </r>
       <r>   30.1022    0.0000 </r>
       <r>   32.2585    0.0000 </r>
       <r>   33.3069    0.0000 </r>
       <r>   33.4597    0.0000 </r>
       <r>   35.0913    0.0000 </r>
      </set>
      <set comment="kpoint 34">
       <r> -105.4652    1.0000 </r>
       <r>  -63.1592    1.0000 </r>
       <r>  -62.9707    1.0000 </r>
       <r>  -62.9600    1.0000 </r>
       <r>  -13.2541    1.0000 </r>
       <r>  -12.9532    1.0000 </r>
       <r>   -2.1911    1.0000 </r>
       <r>   -1.2028    1.0000 </r>
       <r>   -0.2185    1.0000 </r>
       <r>    1.1030    1.0000 </r>
       <r>    1.1780    1.0000 </r>
       <r>    1.8107    1.0000 </r>
       <r>    3.4892    1.0000 </r>
       <r>    4.1094    1.0000 </r>
       <r>    4.5298    1.0000 </r>
       <r>    4.7504    1.0000 </r>
       <r>    5.8493    1.0000 </r>
       <r>    9.4626    0.0000 </r>
       <r>   12.5945    0.0000 </r>
       <r>   15.2062    0.0000 </r>
       <r>   15.4938    0.0000 </r>
       <r>   16.1073    0.0000 </r>
       <r>   17.8231    0.0000 </r>
       <r>   18.2849    0.0000 </r>
       <r>   18.7868    0.0000 </r>
       <r>   21.5861    0.0000 </r>
       <r>   22.6494    0.0000 </r>
       <r>   24.9116    0.0000 </r>
       <r>   27.6589    0.0000 </r>
       <r>   27.9152    0.0000 </r>
       <r>   29.1077    0.0000 </r>
       <r>   29.5685    0.0000 </r>
       <r>   32.1257    0.0000 </r>
       <r>   33.2465    0.0000 </r>
       <r>   33.6488    0.0000 </r>
       <r>   34.7759    0.0000 </r>
      </set>
      <set comment="kpoint 35">
       <r> -105.4652    1.0000 </r>
       <r>  -63.1592    1.0000 </r>
       <r>  -62.9707    1.0000 </r>
       <r>  -62.9602    1.0000 </r>
       <r>  -13.2432    1.0000 </r>
       <r>  -12.9555    1.0000 </r>
       <r>   -2.1806    1.0000 </r>
       <r>   -1.1933    1.0000 </r>
       <r>   -0.2545    1.0000 </r>
       <r>    1.0847    1.0000 </r>
       <r>    1.1748    1.0000 </r>
       <r>    1.8087    1.0000 </r>
       <r>    3.5029    1.0000 </r>
       <r>    4.1113    1.0000 </r>
       <r>    4.5193    1.0000 </r>
       <r>    4.7443    1.0000 </r>
       <r>    5.8516    1.0000 </r>
       <r>    9.5102    0.0000 </r>
       <r>   12.5603    0.0000 </r>
       <r>   15.2386    0.0000 </r>
       <r>   15.5440    0.0000 </r>
       <r>   16.0539    0.0000 </r>
       <r>   17.8206    0.0000 </r>
       <r>   18.2759    0.0000 </r>
       <r>   18.7736    0.0000 </r>
       <r>   21.5965    0.0000 </r>
       <r>   22.6053    0.0000 </r>
       <r>   24.8772    0.0000 </r>
       <r>   27.7008    0.0000 </r>
       <r>   27.8314    0.0000 </r>
       <r>   29.0595    0.0000 </r>
       <r>   29.6877    0.0000 </r>
       <r>   32.1648    0.0000 </r>
       <r>   33.2724    0.0000 </r>
       <r>   33.5904    0.0000 </r>
       <r>   34.8586    0.0000 </r>
      </set>
      <set comment="kpoint 36">
       <r> -105.4652    1.0000 </r>
       <r>  -63.1592    1.0000 </r>
       <r>  -62.9705    1.0000 </r>
       <r>  -62.9604    1.0000 </r>
       <r>  -13.2318    1.0000 </r>
       <r>  -12.9548    1.0000 </r>
       <r>   -2.1523    1.0000 </r>
       <r>   -1.1724    1.0000 </r>
       <r>   -0.3261    1.0000 </r>
       <r>    1.0510    1.0000 </r>
       <r>    1.1679    1.0000 </r>
       <r>    1.8081    1.0000 </r>
       <r>    3.5319    1.0000 </r>
       <r>    4.1171    1.0000 </r>
       <r>    4.4940    1.0000 </r>
       <r>    4.7324    1.0000 </r>
       <r>    5.8495    1.0000 </r>
       <r>    9.5940    0.0000 </r>
       <r>   12.5188    0.0000 </r>
       <r>   15.3075    0.0000 </r>
       <r>   15.6422    0.0000 </r>
       <r>   15.9526    0.0000 </r>
       <r>   17.8105    0.0000 </r>
       <r>   18.2809    0.0000 </r>
       <r>   18.7395    0.0000 </r>
       <r>   21.6139    0.0000 </r>
       <r>   22.5203    0.0000 </r>
       <r>   24.8141    0.0000 </r>
       <r>   27.5137    0.0000 </r>
       <r>   27.9009    0.0000 </r>
       <r>   28.9719    0.0000 </r>
       <r>   29.9516    0.0000 </r>
       <r>   32.2353    0.0000 </r>
       <r>   33.3432    0.0000 </r>
       <r>   33.4910    0.0000 </r>
[...]
       <r>  -12.9540    1.0000 </r>
       <r>   -2.1410    1.0000 </r>
       <r>   -1.1703    1.0000 </r>
       <r>   -0.3484    1.0000 </r>
       <r>    1.0303    1.0000 </r>
       <r>    1.1698    1.0000 </r>
       <r>    1.8113    1.0000 </r>
       <r>    3.5429    1.0000 </r>
       <r>    4.1233    1.0000 </r>
       <r>    4.4851    1.0000 </r>
       <r>    4.7250    1.0000 </r>
       <r>    5.8487    1.0000 </r>
       <r>    9.6222    0.0000 </r>
       <r>   12.4997    0.0000 </r>
       <r>   15.3117    0.0000 </r>
       <r>   15.7054    0.0000 </r>
       <r>   15.9198    0.0000 </r>
       <r>   17.8079    0.0000 </r>
       <r>   18.2696    0.0000 </r>
       <r>   18.7397    0.0000 </r>
       <r>   21.5930    0.0000 </r>
       <r>   22.5237    0.0000 </r>
       <r>   24.8003    0.0000 </r>
       <r>   27.4093    0.0000 </r>
       <r>   27.8331    0.0000 </r>
       <r>   29.0656    0.0000 </r>
       <r>   30.0601    0.0000 </r>
       <r>   32.2432    0.0000 </r>
       <r>   33.2691    0.0000 </r>
       <r>   33.4781    0.0000 </r>
       <r>   35.1415    0.0000 </r>
      </set>
      <set comment="kpoint 60">
       <r> -105.4652    1.0000 </r>
       <r>  -63.1592    1.0000 </r>
       <r>  -62.9708    1.0000 </r>
       <r>  -62.9601    1.0000 </r>
       <r>  -13.2481    1.0000 </r>
       <r>  -12.9542    1.0000 </r>
       <r>   -2.1904    1.0000 </r>
       <r>   -1.2058    1.0000 </r>
       <r>   -0.2267    1.0000 </r>
       <r>    1.0835    1.0000 </r>
       <r>    1.1874    1.0000 </r>
       <r>    1.8150    1.0000 </r>
       <r>    3.4927    1.0000 </r>
       <r>    4.1125    1.0000 </r>
       <r>    4.5286    1.0000 </r>
       <r>    4.7457    1.0000 </r>
       <r>    5.8512    1.0000 </r>
       <r>    9.4805    0.0000 </r>
       <r>   12.5685    0.0000 </r>
       <r>   15.1875    0.0000 </r>
       <r>   15.5411    0.0000 </r>
       <r>   16.0923    0.0000 </r>
       <r>   17.8255    0.0000 </r>
       <r>   18.2733    0.0000 </r>
       <r>   18.7993    0.0000 </r>
       <r>   21.5777    0.0000 </r>
       <r>   22.6556    0.0000 </r>
       <r>   24.8965    0.0000 </r>
       <r>   27.5584    0.0000 </r>
       <r>   27.8991    0.0000 </r>
       <r>   29.2017    0.0000 </r>
       <r>   29.6054    0.0000 </r>
       <r>   32.1302    0.0000 </r>
       <r>   33.2439    0.0000 </r>
       <r>   33.6292    0.0000 </r>
       <r>   34.8432    0.0000 </r>
      </set>
      <set comment="kpoint 61">
       <r> -105.4652    1.0000 </r>
       <r>  -63.1592    1.0000 </r>
       <r>  -62.9709    1.0000 </r>
       <r>  -62.9598    1.0000 </r>
       <r>  -13.2598    1.0000 </r>
       <r>  -12.9537    1.0000 </r>
       <r>   -2.2127    1.0000 </r>
       <r>   -1.2225    1.0000 </r>
       <r>   -0.1667    1.0000 </r>
       <r>    1.1066    1.0000 </r>
       <r>    1.1967    1.0000 </r>
       <r>    1.8209    1.0000 </r>
       <r>    3.4684    1.0000 </r>
       <r>    4.1077    1.0000 </r>
       <r>    4.5496    1.0000 </r>
       <r>    4.7559    1.0000 </r>
       <r>    5.8512    1.0000 </r>
       <r>    9.4104    0.0000 </r>
       <r>   12.6031    0.0000 </r>
       <r>   15.1230    0.0000 </r>
       <r>   15.4606    0.0000 </r>
       <r>   16.1804    0.0000 </r>
       <r>   17.8339    0.0000 </r>
       <r>   18.2650    0.0000 </r>
       <r>   18.8215    0.0000 </r>
       <r>   21.5762    0.0000 </r>
       <r>   22.7114    0.0000 </r>
       <r>   24.9504    0.0000 </r>
       <r>   27.6064    0.0000 </r>
       <r>   27.9247    0.0000 </r>
       <r>   29.2406    0.0000 </r>
       <r>   29.4469    0.0000 </r>
       <r>   32.0752    0.0000 </r>
       <r>   33.2589    0.0000 </r>
       <r>   33.6525    0.0000 </r>
       <r>   34.7609    0.0000 </r>
      </set>
     </set>
    </set>
   </array>
  </eigenvalues>
  <separator name="orbital magnetization" >
   <v name="MAGDIPOLOUT">      0.00000000      0.00000000      0.00000000</v>
  </separator>
  <dos>
   <i name="efermi">      6.91372846 </i>
   <total>
    <array>
     <dimension dim="1">gridpoints</dimension>
     <dimension dim="2">spin</dimension>
     <field>energy</field>
     <field>total</field>
     <field>integrated</field>
     <set>
      <set comment="spin 1">
       <r>  -112.5113     0.0000     0.0000 </r>
       <r>  -111.9946     0.0000     0.0000 </r>
       <r>  -111.4778     0.0000     0.0000 </r>
       <r>  -110.9611     0.0000     0.0000 </r>
       <r>  -110.4444     0.0000     0.0000 </r>
       <r>  -109.9277     0.0000     0.0000 </r>
       <r>  -109.4110     0.0000     0.0000 </r>
       <r>  -108.8943     0.0000     0.0000 </r>
       <r>  -108.3776     0.0000     0.0000 </r>
       <r>  -107.8609     0.0000     0.0000 </r>
       <r>  -107.3442     0.0000     0.0000 </r>
       <r>  -106.8274     0.0000     0.0000 </r>
       <r>  -106.3107     0.0000     0.0000 </r>
       <r>  -105.7940     0.0388     0.0201 </r>
       <r>  -105.2773     3.4757     1.8160 </r>
       <r>  -104.7606     0.3561     2.0000 </r>
       <r>  -104.2439     0.0000     2.0000 </r>
       <r>  -103.7272     0.0000     2.0000 </r>
       <r>  -103.2105     0.0000     2.0000 </r>
       <r>  -102.6937     0.0000     2.0000 </r>
       <r>  -102.1770     0.0000     2.0000 </r>
       <r>  -101.6603     0.0000     2.0000 </r>
       <r>  -101.1436     0.0000     2.0000 </r>
       <r>  -100.6269     0.0000     2.0000 </r>
       <r>  -100.1102     0.0000     2.0000 </r>
       <r>   -99.5935     0.0000     2.0000 </r>
       <r>   -99.0768     0.0000     2.0000 </r>
       <r>   -98.5601     0.0000     2.0000 </r>
       <r>   -98.0433     0.0000     2.0000 </r>
       <r>   -97.5266     0.0000     2.0000 </r>
       <r>   -97.0099     0.0000     2.0000 </r>
       <r>   -96.4932     0.0000     2.0000 </r>
       <r>   -95.9765     0.0000     2.0000 </r>
       <r>   -95.4598     0.0000     2.0000 </r>
       <r>   -94.9431     0.0000     2.0000 </r>
       <r>   -94.4264     0.0000     2.0000 </r>
       <r>   -93.9096     0.0000     2.0000 </r>
       <r>   -93.3929     0.0000     2.0000 </r>
       <r>   -92.8762     0.0000     2.0000 </r>
       <r>   -92.3595     0.0000     2.0000 </r>
       <r>   -91.8428     0.0000     2.0000 </r>
       <r>   -91.3261     0.0000     2.0000 </r>
       <r>   -90.8094     0.0000     2.0000 </r>
       <r>   -90.2927     0.0000     2.0000 </r>
       <r>   -89.7760     0.0000     2.0000 </r>
       <r>   -89.2592     0.0000     2.0000 </r>
       <r>   -88.7425     0.0000     2.0000 </r>
       <r>   -88.2258     0.0000     2.0000 </r>
       <r>   -87.7091     0.0000     2.0000 </r>
       <r>   -87.1924     0.0000     2.0000 </r>
       <r>   -86.6757     0.0000     2.0000 </r>
       <r>   -86.1590     0.0000     2.0000 </r>
       <r>   -85.6423     0.0000     2.0000 </r>
       <r>   -85.1255     0.0000     2.0000 </r>
       <r>   -84.6088     0.0000     2.0000 </r>
       <r>   -84.0921     0.0000     2.0000 </r>
       <r>   -83.5754     0.0000     2.0000 </r>
       <r>   -83.0587     0.0000     2.0000 </r>
       <r>   -82.5420     0.0000     2.0000 </r>
       <r>   -82.0253     0.0000     2.0000 </r>
       <r>   -81.5086     0.0000     2.0000 </r>
       <r>   -80.9919     0.0000     2.0000 </r>
       <r>   -80.4751     0.0000     2.0000 </r>
       <r>   -79.9584     0.0000     2.0000 </r>
       <r>   -79.4417     0.0000     2.0000 </r>
       <r>   -78.9250     0.0000     2.0000 </r>
       <r>   -78.4083     0.0000     2.0000 </r>
       <r>   -77.8916     0.0000     2.0000 </r>
       <r>   -77.3749     0.0000     2.0000 </r>
       <r>   -76.8582     0.0000     2.0000 </r>
       <r>   -76.3414     0.0000     2.0000 </r>
       <r>   -75.8247     0.0000     2.0000 </r>
       <r>   -75.3080     0.0000     2.0000 </r>
       <r>   -74.7913     0.0000     2.0000 </r>
       <r>   -74.2746     0.0000     2.0000 </r>
       <r>   -73.7579     0.0000     2.0000 </r>
       <r>   -73.2412     0.0000     2.0000 </r>
       <r>   -72.7245     0.0000     2.0000 </r>
       <r>   -72.2078     0.0000     2.0000 </r>
       <r>   -71.6910     0.0000     2.0000 </r>
       <r>   -71.1743     0.0000     2.0000 </r>
       <r>   -70.6576     0.0000     2.0000 </r>
       <r>   -70.1409     0.0000     2.0000 </r>
       <r>   -69.6242     0.0000     2.0000 </r>
       <r>   -69.1075     0.0000     2.0000 </r>
       <r>   -68.5908     0.0000     2.0000 </r>
       <r>   -68.0741     0.0000     2.0000 </r>
       <r>   -67.5574     0.0000     2.0000 </r>
       <r>   -67.0406     0.0000     2.0000 </r>
       <r>   -66.5239     0.0000     2.0000 </r>
       <r>   -66.0072     0.0000     2.0000 </r>
       <r>   -65.4905     0.0000     2.0000 </r>
       <r>   -64.9738     0.0000     2.0000 </r>
       <r>   -64.4571     0.0000     2.0000 </r>
       <r>   -63.9404     0.0000     2.0000 </r>
       <r>   -63.4237     0.1237     2.0639 </r>
       <r>   -62.9069     8.7149     6.5670 </r>
       <r>   -62.3902     2.7732     7.9999 </r>
       <r>   -61.8735     0.0002     8.0000 </r>
       <r>   -61.3568     0.0000     8.0000 </r>
       <r>   -60.8401     0.0000     8.0000 </r>
       <r>   -60.3234     0.0000     8.0000 </r>
       <r>   -59.8067     0.0000     8.0000 </r>
       <r>   -59.2900     0.0000     8.0000 </r>
       <r>   -58.7733     0.0000     8.0000 </r>
       <r>   -58.2565     0.0000     8.0000 </r>
       <r>   -57.7398     0.0000     8.0000 </r>
       <r>   -57.2231     0.0000     8.0000 </r>
       <r>   -56.7064     0.0000     8.0000 </r>
       <r>   -56.1897     0.0000     8.0000 </r>
       <r>   -55.6730     0.0000     8.0000 </r>
       <r>   -55.1563     0.0000     8.0000 </r>
       <r>   -54.6396     0.0000     8.0000 </r>
       <r>   -54.1228     0.0000     8.0000 </r>
       <r>   -53.6061     0.0000     8.0000 </r>
       <r>   -53.0894     0.0000     8.0000 </r>
       <r>   -52.5727     0.0000     8.0000 </r>
       <r>   -52.0560     0.0000     8.0000 </r>
       <r>   -51.5393     0.0000     8.0000 </r>
       <r>   -51.0226     0.0000     8.0000 </r>
       <r>   -50.5059     0.0000     8.0000 </r>
       <r>   -49.9892     0.0000     8.0000 </r>
       <r>   -49.4724     0.0000     8.0000 </r>
       <r>   -48.9557     0.0000     8.0000 </r>
       <r>   -48.4390     0.0000     8.0000 </r>
       <r>   -47.9223     0.0000     8.0000 </r>
       <r>   -47.4056     0.0000     8.0000 </r>
       <r>   -46.8889     0.0000     8.0000 </r>
       <r>   -46.3722     0.0000     8.0000 </r>
       <r>   -45.8555     0.0000     8.0000 </r>
       <r>   -45.3387     0.0000     8.0000 </r>
       <r>   -44.8220     0.0000     8.0000 </r>
       <r>   -44.3053     0.0000     8.0000 </r>
       <r>   -43.7886     0.0000     8.0000 </r>
       <r>   -43.2719     0.0000     8.0000 </r>
       <r>   -42.7552     0.0000     8.0000 </r>
       <r>   -42.2385     0.0000     8.0000 </r>
       <r>   -41.7218     0.0000     8.0000 </r>
       <r>   -41.2051     0.0000     8.0000 </r>
       <r>   -40.6883     0.0000     8.0000 </r>
       <r>   -40.1716     0.0000     8.0000 </r>
       <r>   -39.6549     0.0000     8.0000 </r>
       <r>   -39.1382     0.0000     8.0000 </r>
       <r>   -38.6215     0.0000     8.0000 </r>
       <r>   -38.1048     0.0000     8.0000 </r>
       <r>   -37.5881     0.0000     8.0000 </r>
       <r>   -37.0714     0.0000     8.0000 </r>
       <r>   -36.5546     0.0000     8.0000 </r>
       <r>   -36.0379     0.0000     8.0000 </r>
       <r>   -35.5212     0.0000     8.0000 </r>
       <r>   -35.0045     0.0000     8.0000 </r>
       <r>   -34.4878     0.0000     8.0000 </r>
       <r>   -33.9711     0.0000     8.0000 </r>
       <r>   -33.4544     0.0000     8.0000 </r>
       <r>   -32.9377     0.0000     8.0000 </r>
       <r>   -32.4210     0.0000     8.0000 </r>
       <r>   -31.9042     0.0000     8.0000 </r>
       <r>   -31.3875     0.0000     8.0000 </r>
       <r>   -30.8708     0.0000     8.0000 </r>
       <r>   -30.3541     0.0000     8.0000 </r>
       <r>   -29.8374     0.0000     8.0000 </r>
       <r>   -29.3207     0.0000     8.0000 </r>
       <r>   -28.8040     0.0000     8.0000 </r>
       <r>   -28.2873     0.0000     8.0000 </r>
       <r>   -27.7705     0.0000     8.0000 </r>
       <r>   -27.2538     0.0000     8.0000 </r>
       <r>   -26.7371     0.0000     8.0000 </r>
       <r>   -26.2204     0.0000     8.0000 </r>
       <r>   -25.7037     0.0000     8.0000 </r>
       <r>   -25.1870     0.0000     8.0000 </r>
       <r>   -24.6703     0.0000     8.0000 </r>
       <r>   -24.1536     0.0000     8.0000 </r>
       <r>   -23.6369     0.0000     8.0000 </r>
       <r>   -23.1201     0.0000     8.0000 </r>
       <r>   -22.6034     0.0000     8.0000 </r>
       <r>   -22.0867     0.0000     8.0000 </r>
       <r>   -21.5700     0.0000     8.0000 </r>
       <r>   -21.0533     0.0000     8.0000 </r>
       <r>   -20.5366     0.0000     8.0000 </r>
       <r>   -20.0199     0.0000     8.0000 </r>
       <r>   -19.5032     0.0000     8.0000 </r>
       <r>   -18.9864     0.0000     8.0000 </r>
       <r>   -18.4697     0.0000     8.0000 </r>
       <r>   -17.9530     0.0000     8.0000 </r>
       <r>   -17.4363     0.0000     8.0000 </r>
       <r>   -16.9196     0.0000     8.0000 </r>
       <r>   -16.4029     0.0000     8.0000 </r>
       <r>   -15.8862     0.0000     8.0000 </r>
       <r>   -15.3695     0.0000     8.0000 </r>
       <r>   -14.8528     0.0000     8.0000 </r>
       <r>   -14.3360     0.0000     8.0000 </r>
       <r>   -13.8193     0.0001     8.0000 </r>
       <r>   -13.3026     1.2963     8.6699 </r>
       <r>   -12.7859     5.9889    11.7644 </r>
       <r>   -12.2692     0.4559    12.0000 </r>
       <r>   -11.7525     0.0000    12.0000 </r>
       <r>   -11.2358     0.0000    12.0000 </r>
       <r>   -10.7191     0.0000    12.0000 </r>
       <r>   -10.2023     0.0000    12.0000 </r>
       <r>    -9.6856     0.0000    12.0000 </r>
       <r>    -9.1689     0.0000    12.0000 </r>
       <r>    -8.6522     0.0000    12.0000 </r>
       <r>    -8.1355     0.0000    12.0000 </r>
       <r>    -7.6188     0.0000    12.0000 </r>
       <r>    -7.1021     0.0000    12.0000 </r>
       <r>    -6.5854     0.0000    12.0000 </r>
       <r>    -6.0687     0.0000    12.0000 </r>
       <r>    -5.5519     0.0000    12.0000 </r>
       <r>    -5.0352     0.0000    12.0000 </r>
       <r>    -4.5185     0.0000    12.0000 </r>
       <r>    -4.0018     0.0000    12.0000 </r>
       <r>    -3.4851     0.0000    12.0000 </r>
       <r>    -2.9684     0.0000    12.0000 </r>
       <r>    -2.4517     0.0943    12.0487 </r>
       <r>    -1.9350     3.5532    13.8847 </r>
       <r>    -1.4182     0.4201    14.1018 </r>
       <r>    -0.9015     3.5783    15.9507 </r>
       <r>    -0.3848     1.1859    16.5635 </r>
       <r>     0.1319     2.7622    17.9908 </r>
       <r>     0.6486     0.0277    18.0051 </r>
       <r>     1.1653     4.7466    20.4577 </r>
       <r>     1.6820     3.6866    22.3626 </r>
       <r>     2.1987     3.1569    23.9938 </r>
       <r>     2.7154     0.0119    24.0000 </r>
       <r>     3.2322     0.0965    24.0498 </r>
       <r>     3.7489     3.5743    25.8967 </r>
       <r>     4.2656     3.7006    27.8088 </r>
       <r>     4.7823     6.5431    31.1897 </r>
       <r>     5.2990     1.5681    32.0000 </r>
       <r>     5.8157     1.5727    32.8127 </r>
       <r>     6.3324     2.2967    33.9994 </r>
       <r>     6.8491     0.0012    34.0000 </r>
       <r>     7.3659     0.0000    34.0000 </r>
       <r>     7.8826     0.0000    34.0000 </r>
       <r>     8.3993     0.0000    34.0000 </r>
       <r>     8.9160     0.0002    34.0001 </r>
       <r>     9.4327     0.9509    34.4915 </r>
       <r>     9.9494     2.8830    35.9811 </r>
       <r>    10.4661     0.0365    36.0000 </r>
       <r>    10.9828     0.0000    36.0000 </r>
       <r>    11.4995     0.0000    36.0000 </r>
       <r>    12.0163     0.0009    36.0004 </r>
       <r>    12.5330     1.8439    36.9532 </r>
       <r>    13.0497     2.0247    37.9994 </r>
       <r>    13.5664     0.0011    38.0000 </r>
       <r>    14.0831     0.0000    38.0000 </r>
       <r>    14.5998     0.0001    38.0000 </r>
       <r>    15.1165     0.7053    38.3644 </r>
       <r>    15.6332     5.4086    41.1591 </r>
       <r>    16.1500     4.6484    43.5610 </r>
       <r>    16.6667     0.8493    43.9998 </r>
       <r>    17.1834     0.0003    44.0000 </r>
       <r>    17.7001     0.8097    44.4184 </r>
       <r>    18.2168     4.3179    46.6495 </r>
       <r>    18.7335     4.3297    48.8867 </r>
       <r>    19.2502     2.1531    49.9992 </r>
       <r>    19.7669     0.0016    50.0000 </r>
       <r>    20.2836     0.0000    50.0000 </r>
       <r>    20.8004     0.0000    50.0000 </r>
       <r>    21.3171     0.0890    50.0460 </r>
       <r>    21.8338     3.5792    51.8954 </r>
       <r>    22.3505     0.5696    52.1897 </r>
       <r>    22.8672     3.3770    53.9346 </r>
       <r>    23.3839     0.1265    54.0000 </r>
       <r>    23.9006     0.0000    54.0000 </r>
       <r>    24.4173     0.0526    54.0272 </r>
       <r>    24.9341     2.7173    55.4313 </r>
       <r>    25.4508     1.1005    55.9999 </r>
       <r>    25.9675     0.0002    56.0000 </r>
       <r>    26.4842     0.0000    56.0000 </r>
       <r>    27.0009     0.0060    56.0031 </r>
       <r>    27.5176     1.7705    56.9179 </r>
       <r>    28.0343     5.0086    59.5059 </r>
       <r>    28.5510     0.9670    60.0056 </r>
       <r>    29.0677     2.1622    61.1228 </r>
       <r>    29.5845     2.7094    62.5228 </r>
       <r>    30.1012     1.9518    63.5313 </r>
       <r>    30.6179     0.8745    63.9831 </r>
       <r>    31.1346     0.0326    64.0000 </r>
       <r>    31.6513     0.0010    64.0005 </r>
       <r>    32.1680     1.6765    64.8668 </r>
       <r>    32.6847     2.1890    65.9979 </r>
       <r>    33.2014     1.1691    66.6019 </r>
       <r>    33.7181     5.8733    69.6368 </r>
       <r>    34.2349     0.7120    70.0047 </r>
       <r>    34.7516     0.8776    70.4581 </r>
       <r>    35.2683     2.5027    71.7513 </r>
       <r>    35.7850     0.4805    71.9996 </r>
       <r>    36.3017     0.0008    72.0000 </r>
       <r>    36.8184     0.0000    72.0000 </r>
       <r>    37.3351     0.0000    72.0000 </r>
       <r>    37.8518     0.0000    72.0000 </r>
       <r>    38.3686     0.0000    72.0000 </r>
       <r>    38.8853     0.0000    72.0000 </r>
       <r>    39.4020     0.0000    72.0000 </r>
       <r>    39.9187     0.0000    72.0000 </r>
       <r>    40.4354     0.0000    72.0000 </r>
       <r>    40.9521     0.0000    72.0000 </r>
       <r>    41.4688     0.0000    72.0000 </r>
       <r>    41.9855     0.0000    72.0000 </r>
       <r>    42.5022     0.0000    72.0000 </r>
      </set>
     </set>
    </array>
   </total>
  </dos>
 </calculation>
 <structure name="finalpos" >
  <crystal>
   <varray name="basis" >
    <v>       1.42005454       0.81986888       5.62827908 </v>
    <v>      -1.42005454       0.81986888       5.62827908 </v>
    <v>       0.00000000      -1.63973774       5.62827908 </v>
   </varray>
   <i name="volume">     39.31663112 </i>
   <varray name="rec_basis" >
    <v>       0.35209915       0.20328454       0.05922473 </v>
    <v>      -0.35209915       0.20328454       0.05922473 </v>
    <v>      -0.00000000      -0.40656908       0.05922473 </v>
   </varray>
  </crystal>
  <varray name="positions" >
   <v>       0.00000000       0.00000000       0.00000000 </v>
   <v>       0.50000000       0.50000000       0.50000000 </v>
   <v>       0.10956395       0.10956395       0.10956395 </v>
   <v>       0.89043605       0.89043605       0.89043605 </v>
  </varray>
 </structure>
</modeling>
