   4   4   0   0
  0.9829158E+01  0.5862275E-09  0.5862275E-09  0.5862275E-09  0.5000000E-15
  1.000000000000000E-004
  CAR 
 unknown system                          
     39.21734162   -112.35716848  301      5.93410544      1.00000000
   -112.357  0.0000E+00  0.0000E+00
   -111.852  0.0000E+00  0.0000E+00
   -111.347  0.0000E+00  0.0000E+00
   -110.841  0.0000E+00  0.0000E+00
   -110.336  0.0000E+00  0.0000E+00
   -109.831  0.0000E+00  0.0000E+00
   -109.326  0.0000E+00  0.0000E+00
   -108.820  0.0000E+00  0.0000E+00
   -108.315  0.0000E+00  0.0000E+00
   -107.810  0.0000E+00  0.0000E+00
   -107.305  0.0000E+00  0.0000E+00
   -106.799  0.0000E+00  0.0000E+00
   -106.294  0.9957E-08  0.5031E-08
   -105.789  0.4551E-01  0.2300E-01
   -105.284  0.3529E+01  0.1806E+01
   -104.778  0.3838E+00  0.2000E+01
   -104.273  0.2189E-05  0.2000E+01
   -103.768  0.0000E+00  0.2000E+01
   -103.263  0.0000E+00  0.2000E+01
   -102.757  0.0000E+00  0.2000E+01
   -102.252  0.0000E+00  0.2000E+01
   -101.747  0.0000E+00  0.2000E+01
   -101.242  0.0000E+00  0.2000E+01
   -100.736  0.0000E+00  0.2000E+01
   -100.231  0.0000E+00  0.2000E+01
    -99.726  0.0000E+00  0.2000E+01
    -99.221  0.0000E+00  0.2000E+01
    -98.715  0.0000E+00  0.2000E+01
    -98.210  0.0000E+00  0.2000E+01
    -97.705  0.0000E+00  0.2000E+01
    -97.200  0.0000E+00  0.2000E+01
    -96.694  0.0000E+00  0.2000E+01
    -96.189  0.0000E+00  0.2000E+01
    -95.684  0.0000E+00  0.2000E+01
    -95.179  0.0000E+00  0.2000E+01
    -94.673  0.0000E+00  0.2000E+01
    -94.168  0.0000E+00  0.2000E+01
    -93.663  0.0000E+00  0.2000E+01
    -93.158  0.0000E+00  0.2000E+01
    -92.652  0.0000E+00  0.2000E+01
    -92.147  0.0000E+00  0.2000E+01
    -91.642  0.0000E+00  0.2000E+01
    -91.137  0.0000E+00  0.2000E+01
    -90.631  0.0000E+00  0.2000E+01
    -90.126  0.0000E+00  0.2000E+01
    -89.621  0.0000E+00  0.2000E+01
    -89.116  0.0000E+00  0.2000E+01
    -88.610  0.0000E+00  0.2000E+01
    -88.105  0.0000E+00  0.2000E+01
    -87.600  0.0000E+00  0.2000E+01
    -87.095  0.0000E+00  0.2000E+01
    -86.590  0.0000E+00  0.2000E+01
    -86.084  0.0000E+00  0.2000E+01
    -85.579  0.0000E+00  0.2000E+01
    -85.074  0.0000E+00  0.2000E+01
    -84.569  0.0000E+00  0.2000E+01
    -84.063  0.0000E+00  0.2000E+01
    -83.558  0.0000E+00  0.2000E+01
    -83.053  0.0000E+00  0.2000E+01
    -82.548  0.0000E+00  0.2000E+01
    -82.042  0.0000E+00  0.2000E+01
    -81.537  0.0000E+00  0.2000E+01
    -81.032  0.0000E+00  0.2000E+01
    -80.527  0.0000E+00  0.2000E+01
    -80.021  0.0000E+00  0.2000E+01
    -79.516  0.0000E+00  0.2000E+01
    -79.011  0.0000E+00  0.2000E+01
    -78.506  0.0000E+00  0.2000E+01
    -78.000  0.0000E+00  0.2000E+01
    -77.495  0.0000E+00  0.2000E+01
    -76.990  0.0000E+00  0.2000E+01
    -76.485  0.0000E+00  0.2000E+01
    -75.979  0.0000E+00  0.2000E+01
    -75.474  0.0000E+00  0.2000E+01
    -74.969  0.0000E+00  0.2000E+01
    -74.464  0.0000E+00  0.2000E+01
    -73.958  0.0000E+00  0.2000E+01
    -73.453  0.0000E+00  0.2000E+01
    -72.948  0.0000E+00  0.2000E+01
    -72.443  0.0000E+00  0.2000E+01
    -71.937  0.0000E+00  0.2000E+01
    -71.432  0.0000E+00  0.2000E+01
    -70.927  0.0000E+00  0.2000E+01
    -70.422  0.0000E+00  0.2000E+01
    -69.916  0.0000E+00  0.2000E+01
    -69.411  0.0000E+00  0.2000E+01
    -68.906  0.0000E+00  0.2000E+01
    -68.401  0.0000E+00  0.2000E+01
    -67.895  0.0000E+00  0.2000E+01
    -67.390  0.0000E+00  0.2000E+01
    -66.885  0.0000E+00  0.2000E+01
    -66.380  0.0000E+00  0.2000E+01
    -65.874  0.0000E+00  0.2000E+01
    -65.369  0.0000E+00  0.2000E+01
    -64.864  0.0000E+00  0.2000E+01
    -64.359  0.0000E+00  0.2000E+01
    -63.853  0.2038E-05  0.2000E+01
    -63.348  0.3941E+00  0.2199E+01
    -62.843  0.9681E+01  0.7090E+01
    -62.338  0.1800E+01  0.8000E+01
    -61.832  0.5644E-04  0.8000E+01
    -61.327  0.0000E+00  0.8000E+01
    -60.822  0.0000E+00  0.8000E+01
    -60.317  0.0000E+00  0.8000E+01
    -59.811  0.0000E+00  0.8000E+01
    -59.306  0.0000E+00  0.8000E+01
    -58.801  0.0000E+00  0.8000E+01
    -58.296  0.0000E+00  0.8000E+01
    -57.790  0.0000E+00  0.8000E+01
    -57.285  0.0000E+00  0.8000E+01
    -56.780  0.0000E+00  0.8000E+01
    -56.275  0.0000E+00  0.8000E+01
    -55.769  0.0000E+00  0.8000E+01
    -55.264  0.0000E+00  0.8000E+01
    -54.759  0.0000E+00  0.8000E+01
    -54.254  0.0000E+00  0.8000E+01
    -53.748  0.0000E+00  0.8000E+01
    -53.243  0.0000E+00  0.8000E+01
    -52.738  0.0000E+00  0.8000E+01
    -52.233  0.0000E+00  0.8000E+01
    -51.727  0.0000E+00  0.8000E+01
    -51.222  0.0000E+00  0.8000E+01
    -50.717  0.0000E+00  0.8000E+01
    -50.212  0.0000E+00  0.8000E+01
    -49.706  0.0000E+00  0.8000E+01
    -49.201  0.0000E+00  0.8000E+01
    -48.696  0.0000E+00  0.8000E+01
    -48.191  0.0000E+00  0.8000E+01
    -47.685  0.0000E+00  0.8000E+01
    -47.180  0.0000E+00  0.8000E+01
    -46.675  0.0000E+00  0.8000E+01
    -46.170  0.0000E+00  0.8000E+01
    -45.664  0.0000E+00  0.8000E+01
    -45.159  0.0000E+00  0.8000E+01
    -44.654  0.0000E+00  0.8000E+01
    -44.149  0.0000E+00  0.8000E+01
    -43.643  0.0000E+00  0.8000E+01
    -43.138  0.0000E+00  0.8000E+01
    -42.633  0.0000E+00  0.8000E+01
    -42.128  0.0000E+00  0.8000E+01
    -41.622  0.0000E+00  0.8000E+01
    -41.117  0.0000E+00  0.8000E+01
    -40.612  0.0000E+00  0.8000E+01
    -40.107  0.0000E+00  0.8000E+01
    -39.601  0.0000E+00  0.8000E+01
    -39.096  0.0000E+00  0.8000E+01
    -38.591  0.0000E+00  0.8000E+01
    -38.086  0.0000E+00  0.8000E+01
    -37.580  0.0000E+00  0.8000E+01
    -37.075  0.0000E+00  0.8000E+01
    -36.570  0.0000E+00  0.8000E+01
    -36.065  0.0000E+00  0.8000E+01
    -35.559  0.0000E+00  0.8000E+01
    -35.054  0.0000E+00  0.8000E+01
    -34.549  0.0000E+00  0.8000E+01
    -34.044  0.0000E+00  0.8000E+01
    -33.538  0.0000E+00  0.8000E+01
    -33.033  0.0000E+00  0.8000E+01
    -32.528  0.0000E+00  0.8000E+01
    -32.023  0.0000E+00  0.8000E+01
    -31.517  0.0000E+00  0.8000E+01
    -31.012  0.0000E+00  0.8000E+01
    -30.507  0.0000E+00  0.8000E+01
    -30.002  0.0000E+00  0.8000E+01
    -29.496  0.0000E+00  0.8000E+01
    -28.991  0.0000E+00  0.8000E+01
    -28.486  0.0000E+00  0.8000E+01
    -27.981  0.0000E+00  0.8000E+01
    -27.475  0.0000E+00  0.8000E+01
    -26.970  0.0000E+00  0.8000E+01
    -26.465  0.0000E+00  0.8000E+01
    -25.960  0.0000E+00  0.8000E+01
    -25.454  0.0000E+00  0.8000E+01
    -24.949  0.0000E+00  0.8000E+01
    -24.444  0.0000E+00  0.8000E+01
    -23.939  0.0000E+00  0.8000E+01
    -23.433  0.0000E+00  0.8000E+01
    -22.928  0.0000E+00  0.8000E+01
    -22.423  0.0000E+00  0.8000E+01
    -21.918  0.0000E+00  0.8000E+01
    -21.412  0.0000E+00  0.8000E+01
    -20.907  0.0000E+00  0.8000E+01
    -20.402  0.0000E+00  0.8000E+01
    -19.897  0.0000E+00  0.8000E+01
    -19.391  0.0000E+00  0.8000E+01
    -18.886  0.0000E+00  0.8000E+01
    -18.381  0.0000E+00  0.8000E+01
    -17.876  0.0000E+00  0.8000E+01
    -17.370  0.0000E+00  0.8000E+01
    -16.865  0.0000E+00  0.8000E+01
    -16.360  0.2285E-13  0.8000E+01
    -15.855  0.6644E-04  0.8000E+01
    -15.349  0.1119E+01  0.8565E+01
    -14.844  0.2834E+01  0.9997E+01
    -14.339  0.5388E-02  0.1000E+02
    -13.834  0.3043E-06  0.1000E+02
    -13.328  0.1858E+00  0.1009E+02
    -12.823  0.3658E+01  0.1194E+02
    -12.318  0.1144E+00  0.1200E+02
    -11.813  0.8913E-07  0.1200E+02
    -11.307  0.0000E+00  0.1200E+02
    -10.802  0.0000E+00  0.1200E+02
    -10.297  0.0000E+00  0.1200E+02
     -9.792  0.0000E+00  0.1200E+02
     -9.287  0.0000E+00  0.1200E+02
     -8.781  0.0000E+00  0.1200E+02
     -8.276  0.0000E+00  0.1200E+02
     -7.771  0.0000E+00  0.1200E+02
     -7.266  0.0000E+00  0.1200E+02
     -6.760  0.0000E+00  0.1200E+02
     -6.255  0.0000E+00  0.1200E+02
     -5.750  0.0000E+00  0.1200E+02
     -5.245  0.0000E+00  0.1200E+02
     -4.739  0.0000E+00  0.1200E+02
     -4.234  0.0000E+00  0.1200E+02
     -3.729  0.1758E-14  0.1200E+02
     -3.224  0.1553E-04  0.1200E+02
     -2.718  0.7320E+00  0.1237E+02
     -2.213  0.3212E+01  0.1399E+02
     -1.708  0.1475E-01  0.1400E+02
     -1.203  0.8200E-09  0.1400E+02
     -0.697  0.0000E+00  0.1400E+02
     -0.192  0.0000E+00  0.1400E+02
      0.313  0.0000E+00  0.1400E+02
      0.818  0.1670E-13  0.1400E+02
      1.324  0.6596E-04  0.1400E+02
      1.829  0.2334E+01  0.1518E+02
      2.334  0.1335E+02  0.2192E+02
      2.839  0.1979E+00  0.2202E+02
      3.345  0.6745E+01  0.2543E+02
      3.850  0.1840E+01  0.2636E+02
      4.355  0.7110E+01  0.2995E+02
      4.860  0.5795E+01  0.3288E+02
      5.366  0.2211E+01  0.3400E+02
      5.871  0.1273E-03  0.3400E+02
      6.376  0.4219E-13  0.3400E+02
      6.881  0.1314E-09  0.3400E+02
      7.387  0.6170E-02  0.3400E+02
      7.892  0.2889E+01  0.3546E+02
      8.397  0.1064E+01  0.3600E+02
      8.902  0.5537E-04  0.3600E+02
      9.408  0.0000E+00  0.3600E+02
      9.913  0.0000E+00  0.3600E+02
     10.418  0.0000E+00  0.3600E+02
     10.923  0.7169E-11  0.3600E+02
     11.429  0.1442E-02  0.3600E+02
     11.934  0.2282E+01  0.3715E+02
     12.439  0.1674E+01  0.3800E+02
     12.944  0.3681E+00  0.3819E+02
     13.450  0.3542E+01  0.3998E+02
     13.955  0.4844E-01  0.4000E+02
     14.460  0.1149E-07  0.4000E+02
     14.965  0.7032E-14  0.4000E+02
     15.471  0.3428E-04  0.4000E+02
     15.976  0.9280E+00  0.4047E+02
     16.481  0.3022E+01  0.4200E+02
     16.986  0.8889E-02  0.4200E+02
     17.492  0.1473E+01  0.4274E+02
     17.997  0.2483E+01  0.4400E+02
     18.502  0.8590E-02  0.4400E+02
     19.007  0.2895E+01  0.4547E+02
     19.513  0.1706E+01  0.4633E+02
     20.018  0.3291E+01  0.4799E+02
     20.523  0.1875E-01  0.4800E+02
     21.028  0.1376E-08  0.4800E+02
     21.534  0.2294E-04  0.4800E+02
     22.039  0.8244E+00  0.4842E+02
     22.544  0.3123E+01  0.4999E+02
     23.049  0.1143E-01  0.5000E+02
     23.555  0.4764E-09  0.5000E+02
     24.060  0.4329E-04  0.5000E+02
     24.565  0.9924E+00  0.5050E+02
     25.070  0.2959E+01  0.5200E+02
     25.576  0.3918E-01  0.5202E+02
     26.081  0.6474E+01  0.5529E+02
     26.586  0.1448E+01  0.5602E+02
     27.091  0.7329E+01  0.5972E+02
     27.597  0.4496E+01  0.6199E+02
     28.102  0.1349E-01  0.6200E+02
     28.607  0.6746E-09  0.6200E+02
     29.112  0.1318E-13  0.6200E+02
     29.618  0.4880E-04  0.6200E+02
     30.123  0.1027E+01  0.6252E+02
     30.628  0.2934E+01  0.6400E+02
     31.133  0.5359E+01  0.6671E+02
     31.639  0.2765E+01  0.6811E+02
     32.144  0.4033E+01  0.7014E+02
     32.649  0.3630E+01  0.7198E+02
     33.154  0.4551E-01  0.7200E+02
     33.660  0.9957E-08  0.7200E+02
     34.165  0.0000E+00  0.7200E+02
     34.670  0.0000E+00  0.7200E+02
     35.175  0.0000E+00  0.7200E+02
     35.681  0.0000E+00  0.7200E+02
     36.186  0.0000E+00  0.7200E+02
     36.691  0.0000E+00  0.7200E+02
     37.196  0.0000E+00  0.7200E+02
     37.702  0.0000E+00  0.7200E+02
     38.207  0.0000E+00  0.7200E+02
     38.712  0.0000E+00  0.7200E+02
     39.217  0.0000E+00  0.7200E+02
