    4    4    1    1
  0.9829158E+01  0.5862275E-09  0.5862275E-09  0.5862275E-09  0.5000000E-15
  1.000000000000000E-004
  CAR 
 unknown system                          
     34      1     36
 
  0.7002315E-04  0.1446759E-04  0.1215278E-04  0.1000000E+01
    1     -105.467418   1.000000
    2      -63.162350   1.000000
    3      -62.951336   1.000000
    4      -62.951335   1.000000
    5      -15.268141   1.000000
    6      -13.091550   1.000000
    7       -2.591454   1.000000
    8        1.916489   1.000000
    9        1.987712   1.000000
   10        1.987714   1.000000
   11        2.048675   1.000000
   12        3.193052   1.000000
   13        3.193052   1.000000
   14        4.038990   1.000000
   15        4.038990   1.000000
   16        4.777713   1.000000
   17        4.777713   1.000000
   18        7.804727   0.000000
   19       11.906481   0.000000
   20       13.131536   0.000000
   21       17.537792   0.000000
   22       19.650982   0.000000
   23       18.919437   0.000000
   24       16.078345   0.000000
   25       24.660208   0.000000
   26       25.950500   0.000000
   27       25.950495   0.000000
   28       26.954320   0.000000
   29       26.954323   0.000000
   30       27.213898   0.000000
   31       22.153798   0.000000
   32       30.214128   0.000000
   33       31.043956   0.000000
   34       31.090961   0.000000
   35       31.867520   0.000000
   36       32.327591   0.000000
