       N       E                     dE             d eps       ncg     rms          rms(c)
DAV:   1     0.354353233380E+03    0.35435E+03   -0.17947E+04   108   0.327E+03
DAV:   2     0.753389268843E+00   -0.35360E+03   -0.32922E+03   120   0.695E+02
DAV:   3    -0.204504888374E+02   -0.21204E+02   -0.21133E+02   108   0.178E+02
DAV:   4    -0.209838084425E+02   -0.53332E+00   -0.53323E+00   108   0.170E+01
DAV:   5    -0.210325675307E+02   -0.48759E-01   -0.48759E-01    96   0.525E+00
RMM:   6    -0.210342626988E+02   -0.16952E-02   -0.16952E-02   134   0.837E-01
RMM:   7    -0.210343925562E+02   -0.12986E-03   -0.13690E-03   118   0.470E-01
RMM:   8    -0.210344608026E+02   -0.68246E-04   -0.66474E-04   120   0.289E-01
RMM:   9    -0.210344725121E+02   -0.11709E-04   -0.67686E-05    93   0.270E-01
RMM:  10    -0.210344792858E+02   -0.67737E-05   -0.47983E-05   112   0.180E-01
RMM:  11    -0.210344844281E+02   -0.51423E-05   -0.49972E-05    97   0.108E-01
RMM:  12    -0.210344864693E+02   -0.20413E-05   -0.11869E-05    94   0.113E-01
RMM:  13    -0.210344868909E+02   -0.42152E-06   -0.32316E-06    87   0.622E-02
RMM:  14    -0.210344876960E+02   -0.80509E-06   -0.56167E-06    80   0.466E-02
RMM:  15    -0.210344879842E+02   -0.28822E-06   -0.92854E-07    84   0.302E-02
RMM:  16    -0.210344881087E+02   -0.12453E-06   -0.89650E-07    73   0.202E-02
RMM:  17    -0.210344881920E+02   -0.83293E-07   -0.67551E-07    75   0.186E-02
   1 F= -.21034488E+02 E0= -.21034488E+02  d E =-.683219E-15
