<?xml version="1.0" encoding="ISO-8859-1"?>
<modeling>
 <generator>
  <i name="program" type="string">vasp </i>
  <i name="version" type="string">5.4.4.18Apr17-6-g9f103f2a35  </i>
  <i name="subversion" type="string">(build Dec 13 2019 19:06:22) complex            parallel </i>
  <i name="platform" type="string">LinuxIFC </i>
  <i name="date" type="string">2021 07 03 </i>
  <i name="time" type="string">06:57:04 </i>
 </generator>
 <incar>
  <i type="string" name="PREC">accurate</i>
  <i type="string" name="ALGO"> Fast</i>
  <i type="int" name="ISPIN">     1</i>
  <i type="int" name="ICHARG">    11</i>
  <i type="int" name="NELM">    60</i>
  <i type="int" name="IBRION">    -1</i>
  <i name="EDIFF">      0.00000010</i>
  <i name="ENCUT">    550.00000000</i>
  <i type="int" name="NBANDS">    36</i>
  <i type="logical" name="LREAL"> F  </i>
  <i type="int" name="ISMEAR">     0</i>
  <i type="logical" name="LWAVE"> F  </i>
  <i type="logical" name="LCHARG"> F  </i>
  <v type="int" name="KPOINT_BSE">    -1     0     0     0</v>
  <i type="int" name="NELM">    60</i>
  <i type="string" name="GGA"> PS</i>
 </incar>
 <structure name="primitive_cell" >
  <crystal>
   <varray name="basis" >
    <v>       1.42005454       0.81986888       5.62827908 </v>
    <v>      -1.42005454       0.81986888       5.62827908 </v>
    <v>       0.00000000      -1.63973774       5.62827908 </v>
   </varray>
   <i name="volume">     39.31663112 </i>
   <varray name="rec_basis" >
    <v>       0.35209915       0.20328454       0.05922473 </v>
    <v>      -0.35209915       0.20328454       0.05922473 </v>
    <v>      -0.00000000      -0.40656908       0.05922473 </v>
   </varray>
  </crystal>
  <varray name="positions" >
   <v>       0.00000000       0.00000000       0.00000000 </v>
   <v>       0.10956395       0.10956395       0.10956395 </v>
   <v>      -0.10956395      -0.10956395      -0.10956395 </v>
   <v>      -0.50000000      -0.50000000      -0.50000000 </v>
  </varray>
 </structure>
 <varray name="primitive_index" >
  <v type="int" >        1 </v>
  <v type="int" >        3 </v>
  <v type="int" >        4 </v>
  <v type="int" >        2 </v>
 </varray>
 <kpoints>
  <varray name="kpointlist" >
   <v>       0.00007002       0.00001447       0.00001215 </v>
  </varray>
  <varray name="weights" >
   <v>       1.00000000 </v>
  </varray>
 </kpoints>
 <parameters>
  <separator name="general" >
   <i type="string" name="SYSTEM">unknown system</i>
   <i type="logical" name="LCOMPAT"> F  </i>
  </separator>
  <separator name="electronic" >
   <i type="string" name="PREC">accura</i>
   <i name="ENMAX">    550.00000000</i>
   <i name="ENAUG">    982.89200000</i>
   <i name="EDIFF">      0.00000010</i>
   <i type="int" name="IALGO">    68</i>
   <i type="int" name="IWAVPR">    10</i>
   <i type="int" name="NBANDS">    36</i>
   <i name="NELECT">     34.00000000</i>
   <i type="int" name="TURBO">     0</i>
   <i type="int" name="IRESTART">     0</i>
   <i type="int" name="NREBOOT">     0</i>
   <i type="int" name="NMIN">     0</i>
   <i name="EREF">      0.00000000</i>
   <separator name="electronic smearing" >
    <i type="int" name="ISMEAR">     0</i>
    <i name="SIGMA">      0.20000000</i>
    <i name="KSPACING">      0.50000000</i>
    <i type="logical" name="KGAMMA"> T  </i>
   </separator>
   <separator name="electronic projectors" >
    <i type="logical" name="LREAL"> F  </i>
    <v name="ROPT">      0.00000000      0.00000000      0.00000000</v>
    <i type="int" name="LMAXPAW">  -100</i>
    <i type="int" name="LMAXMIX">     2</i>
    <i type="logical" name="NLSPLINE"> F  </i>
   </separator>
   <separator name="electronic startup" >
    <i type="int" name="ISTART">     0</i>
    <i type="int" name="ICHARG">    11</i>
    <i type="int" name="INIWAV">     1</i>
   </separator>
   <separator name="electronic spin" >
    <i type="int" name="ISPIN">     1</i>
    <i type="logical" name="LNONCOLLINEAR"> F  </i>
    <v name="MAGMOM">      1.00000000      1.00000000      1.00000000      1.00000000</v>
    <i name="NUPDOWN">     -1.00000000</i>
    <i type="logical" name="LSORBIT"> F  </i>
    <v name="SAXIS">      0.00000000      0.00000000      1.00000000</v>
    <i type="logical" name="LSPIRAL"> F  </i>
    <v name="QSPIRAL">      0.00000000      0.00000000      0.00000000</v>
    <i type="logical" name="LZEROZ"> F  </i>
   </separator>
   <separator name="electronic exchange-correlation" >
    <i type="logical" name="LASPH"> F  </i>
    <i type="logical" name="LMETAGGA"> F  </i>
   </separator>
   <separator name="electronic convergence" >
    <i type="int" name="NELM">    60</i>
    <i type="int" name="NELMDL">     0</i>
    <i type="int" name="NELMIN">     2</i>
    <i name="ENINI">    550.00000000</i>
    <separator name="electronic convergence detail" >
     <i type="logical" name="LDIAG"> T  </i>
     <i type="logical" name="LSUBROT"> F  </i>
     <i name="WEIMIN">      0.00000000</i>
     <i name="EBREAK">      0.00000000</i>
     <i name="DEPER">      0.30000000</i>
     <i type="int" name="NRMM">     4</i>
     <i name="TIME">      0.40000000</i>
    </separator>
   </separator>
   <separator name="electronic mixer" >
    <i name="AMIX">      0.40000000</i>
    <i name="BMIX">      1.00000000</i>
    <i name="AMIN">      0.10000000</i>
    <i name="AMIX_MAG">      1.60000000</i>
    <i name="BMIX_MAG">      1.00000000</i>
    <separator name="electronic mixer details" >
     <i type="int" name="IMIX">     4</i>
     <i type="logical" name="MIXFIRST"> F  </i>
     <i type="int" name="MAXMIX">   -45</i>
     <i name="WC">    100.00000000</i>
     <i type="int" name="INIMIX">     1</i>
     <i type="int" name="MIXPRE">     1</i>
     <i type="int" name="MREMOVE">     5</i>
    </separator>
   </separator>
   <separator name="electronic dipolcorrection" >
    <i type="logical" name="LDIPOL"> F  </i>
    <i type="logical" name="LMONO"> F  </i>
    <i type="int" name="IDIPOL">     0</i>
    <i name="EPSILON">      1.00000000</i>
    <v name="DIPOL">   -100.00000000   -100.00000000   -100.00000000</v>
    <i name="EFIELD">      0.00000000</i>
   </separator>
  </separator>
  <separator name="grids" >
   <i type="int" name="NGX">    48</i>
   <i type="int" name="NGY">    48</i>
   <i type="int" name="NGZ">    48</i>
   <i type="int" name="NGXF">    96</i>
   <i type="int" name="NGYF">    96</i>
   <i type="int" name="NGZF">    96</i>
   <i type="logical" name="ADDGRID"> F  </i>
  </separator>
  <separator name="ionic" >
   <i type="int" name="NSW">     0</i>
   <i type="int" name="IBRION">    -1</i>
   <i type="int" name="MDALGO">     0</i>
   <i type="int" name="ISIF">     2</i>
   <i name="PSTRESS">      0.00000000</i>
   <i name="EDIFFG">      0.00000100</i>
   <i type="int" name="NFREE">     0</i>
   <i name="POTIM">      0.50000000</i>
   <i name="SMASS">     -3.00000000</i>
   <i name="SCALEE">      1.00000000</i>
  </separator>
  <separator name="ionic md" >
   <i name="TEBEG">      0.00010000</i>
   <i name="TEEND">      0.00010000</i>
   <i type="int" name="NBLOCK">     1</i>
   <i type="int" name="KBLOCK">     1</i>
   <i type="int" name="NPACO">   256</i>
   <i name="APACO">     16.00000000</i>
  </separator>
  <separator name="symmetry" >
   <i type="int" name="ISYM">     2</i>
   <i name="SYMPREC">      0.00001000</i>
  </separator>
  <separator name="dos" >
   <i type="int" name="LORBIT">     0</i>
   <v name="RWIGS">     -1.00000000     -1.00000000     -1.00000000</v>
   <i type="int" name="NEDOS">   301</i>
   <i name="EMIN">     10.00000000</i>
   <i name="EMAX">    -10.00000000</i>
   <i name="EFERMI">      0.00000000</i>
  </separator>
  <separator name="writing" >
   <i type="int" name="NWRITE">     2</i>
   <i type="logical" name="LWAVE"> F  </i>
   <i type="logical" name="LDOWNSAMPLE"> F  </i>
   <i type="logical" name="LCHARG"> F  </i>
   <i type="logical" name="LPARD"> F  </i>
   <i type="logical" name="LVTOT"> F  </i>
   <i type="logical" name="LVHAR"> F  </i>
   <i type="logical" name="LELF"> F  </i>
   <i type="logical" name="LOPTICS"> F  </i>
   <v name="STM">      0.00000000      0.00000000      0.00000000      0.00000000      0.00000000      0.00000000      0.00000000</v>
  </separator>
  <separator name="performance" >
   <i type="int" name="NPAR">     6</i>
   <i type="int" name="NSIM">     4</i>
   <i type="int" name="NBLK">    -1</i>
   <i type="logical" name="LPLANE"> T  </i>
   <i type="logical" name="LSCALAPACK"> T  </i>
   <i type="logical" name="LSCAAWARE"> F  </i>
   <i type="logical" name="LSCALU"> F  </i>
   <i type="logical" name="LASYNC"> F  </i>
   <i type="logical" name="LORBITALREAL"> F  </i>
  </separator>
  <separator name="miscellaneous" >
   <i type="int" name="IDIOT">     3</i>
   <i type="int" name="ISPECIAL">     0</i>
   <i type="logical" name="LMUSIC"> F  </i>
   <v name="POMASS">     63.54600000     26.98200000     16.00000000</v>
   <v name="DARWINR">      0.00000000      0.00000000      0.00000000</v>
   <v name="DARWINV">      1.00000000      1.00000000      1.00000000</v>
   <i type="logical" name="LCORR"> T  </i>
  </separator>
  <i type="logical" name="GGA_COMPAT"> T  </i>
  <i type="logical" name="LBERRY"> F  </i>
  <i type="int" name="ICORELEVEL">     0</i>
  <i type="logical" name="LDAU"> F  </i>
  <i type="int" name="I_CONSTRAINED_M">     0</i>
  <separator name="electronic exchange-correlation" >
   <i type="string" name="GGA">PS</i>
   <i type="int" name="VOSKOWN">     0</i>
   <i type="logical" name="LHFCALC"> F  </i>
   <i type="string" name="PRECFOCK"></i>
   <i type="logical" name="LSYMGRAD"> F  </i>
   <i type="logical" name="LHFONE"> F  </i>
   <i type="logical" name="LRHFCALC"> F  </i>
   <i type="logical" name="LTHOMAS"> F  </i>
   <i type="logical" name="LMODELHF"> F  </i>
   <i name="ENCUT4O">     -1.00000000</i>
   <i type="int" name="EXXOEP">     0</i>
   <i type="int" name="FOURORBIT">     0</i>
   <i name="AEXX">      0.00000000</i>
   <i name="HFALPHA">      0.00000000</i>
   <i name="MCALPHA">      0.00000000</i>
   <i name="ALDAX">      1.00000000</i>
   <i name="AGGAX">      1.00000000</i>
   <i name="ALDAC">      1.00000000</i>
   <i name="AGGAC">      1.00000000</i>
   <i type="int" name="NKREDX">     1</i>
   <i type="int" name="NKREDY">     1</i>
   <i type="int" name="NKREDZ">     1</i>
   <i type="logical" name="SHIFTRED"> F  </i>
   <i type="logical" name="ODDONLY"> F  </i>
   <i type="logical" name="EVENONLY"> F  </i>
   <i type="int" name="LMAXFOCK">     0</i>
   <i type="int" name="NMAXFOCKAE">     0</i>
   <i type="logical" name="LFOCKAEDFT"> F  </i>
   <i name="HFSCREEN">      0.00000000</i>
   <i name="HFSCREENC">      0.00000000</i>
   <i type="int" name="NBANDSGWLOW">     0</i>
  </separator>
  <separator name="vdW DFT" >
   <i type="logical" name="LUSE_VDW"> F  </i>
   <i name="Zab_VDW">     -0.84910000</i>
   <i name="PARAM1">      0.12340000</i>
   <i name="PARAM2">      1.00000000</i>
   <i name="PARAM3">      0.00000000</i>
  </separator>
  <separator name="model GW" >
   <i type="int" name="MODEL_GW">     0</i>
   <i name="MODEL_EPS0">      5.89749467</i>
   <i name="MODEL_ALPHA">      1.00000000</i>
  </separator>
  <separator name="linear response parameters" >
   <i type="logical" name="LEPSILON"> F  </i>
   <i type="logical" name="LRPA"> F  </i>
   <i type="logical" name="LNABLA"> F  </i>
   <i type="logical" name="LVEL"> F  </i>
   <i type="int" name="KINTER">     0</i>
   <i name="CSHIFT">      0.10000000</i>
   <i name="OMEGAMAX">     -1.00000000</i>
   <i name="DEG_THRESHOLD">      0.00200000</i>
   <i name="RTIME">     -0.10000000</i>
   <i name="WPLASMAI">      0.00000000</i>
   <v name="DFIELD">      0.00000000      0.00000000      0.00000000</v>
   <v name="WPLASMA">      0.00000000      0.00000000      0.00000000      0.00000000      0.00000000      0.00000000      0.00000000      0.00000000      0.00000000</v>
  </separator>
  <separator name="orbital magnetization" >
   <i type="logical" name="NUCIND"> F  </i>
   <v name="MAGPOS">      0.00000000      0.00000000      0.00000000</v>
   <i type="logical" name="LNICSALL"> T  </i>
   <i type="logical" name="ORBITALMAG"> F  </i>
   <i type="logical" name="LMAGBLOCH"> F  </i>
   <i type="logical" name="LCHIMAG"> F  </i>
   <i type="logical" name="LGAUGE"> T  </i>
   <i type="int" name="MAGATOM">     0</i>
   <v name="MAGDIPOL">      0.00000000      0.00000000      0.00000000</v>
   <v name="AVECCONST">      0.00000000      0.00000000      0.00000000</v>
  </separator>
  <separator name="response functions" >
   <i type="logical" name="LADDER"> F  </i>
   <i type="logical" name="LRPAFORCE"> F  </i>
   <i type="logical" name="LFXC"> F  </i>
   <i type="logical" name="LHARTREE"> T  </i>
   <i type="int" name="IBSE">     0</i>
   <v type="int" name="KPOINT">    -1     0     0     0</v>
   <i type="logical" name="LTCTE"> F  </i>
   <i type="logical" name="LTETE"> F  </i>
   <i type="logical" name="LTRIPLET"> F  </i>
   <i type="logical" name="LFXCEPS"> F  </i>
   <i type="logical" name="LFXHEG"> F  </i>
   <i type="int" name="NATURALO">     2</i>
   <i type="logical" name="L2ORDER"> F  </i>
   <i type="logical" name="LMP2LT"> F  </i>
   <i type="logical" name="LUSEW"> F  </i>
   <i name="ENCUTGW">     -2.00000000</i>
   <i name="ENCUTGWSOFT">     -2.00000000</i>
   <i name="ENCUTLF">     -1.00000000</i>
   <i type="int" name="LMAXMP2">    -1</i>
   <i name="SCISSOR">      0.00000000</i>
   <i type="int" name="NOMEGA">     0</i>
   <i type="int" name="NOMEGAR">     0</i>
   <i type="int" name="NBANDSGW">    -1</i>
   <i type="int" name="NBANDSO">    -1</i>
   <i type="int" name="NBANDSV">    -1</i>
   <i type="int" name="NELM">    60</i>
   <i type="int" name="NELMHF">     1</i>
   <i type="int" name="DIM">     3</i>
   <i type="int" name="ANTIRES">     0</i>
   <i name="OMEGAMAX">    -30.00000000</i>
   <i name="OMEGAMIN">    -30.00000000</i>
   <i name="OMEGATL">   -200.00000000</i>
   <i type="int" name="OMEGAGRID">   140</i>
   <i name="CSHIFT">     -0.10000000</i>
   <i type="logical" name="SELFENERGY"> F  </i>
   <i type="logical" name="LSPECTRAL"> F  </i>
   <i type="logical" name="LSPECTRALGW"> F  </i>
   <i type="logical" name="LSINGLES"> F  </i>
   <i type="logical" name="LFERMIGW"> F  </i>
   <i type="logical" name="ODDONLYGW"> F  </i>
   <i type="logical" name="EVENONLYGW"> F  </i>
   <i type="int" name="NKREDLFX">     1</i>
   <i type="int" name="NKREDLFY">     1</i>
   <i type="int" name="NKREDLFZ">     1</i>
   <i type="int" name="MAXMEM">  2800</i>
   <i type="int" name="TELESCOPE">     0</i>
   <i type="int" name="TAUPAR">     1</i>
   <i type="int" name="OMEGAPAR">    -1</i>
   <i name="LAMBDA">      1.00000000</i>
  </separator>
  <separator name="External order field" >
   <i name="OFIELD_KAPPA">      0.00000000</i>
   <v name="OFIELD_K">      0.00000000      0.00000000      0.00000000</v>
   <i name="OFIELD_Q6_NEAR">      0.00000000</i>
   <i name="OFIELD_Q6_FAR">      0.00000000</i>
   <i name="OFIELD_A">      0.00000000</i>
  </separator>
 </parameters>
 <atominfo>
  <atoms>       4 </atoms>
  <types>       3 </types>
  <array name="atoms" >
   <dimension dim="1">ion</dimension>
   <field type="string">element</field>
   <field type="int">atomtype</field>
   <set>
    <rc><c>Cu</c><c>   1</c></rc>
    <rc><c>Al</c><c>   2</c></rc>
    <rc><c>O </c><c>   3</c></rc>
    <rc><c>O </c><c>   3</c></rc>
   </set>
  </array>
  <array name="atomtypes" >
   <dimension dim="1">type</dimension>
   <field type="int">atomspertype</field>
   <field type="string">element</field>
   <field>mass</field>
   <field>valence</field>
   <field type="string">pseudopotential</field>
   <set>
    <rc><c>   1</c><c>Cu</c><c>     63.54600000</c><c>     19.00000000</c><c>  PAW_PBE Cu_sv_GW 05Dec2013            </c></rc>
    <rc><c>   1</c><c>Al</c><c>     26.98200000</c><c>      3.00000000</c><c>  PAW_PBE Al_GW 19Mar2012               </c></rc>
    <rc><c>   2</c><c>O </c><c>     16.00000000</c><c>      6.00000000</c><c>  PAW_PBE O_GW 28Sep2005                </c></rc>
   </set>
  </array>
 </atominfo>
 <structure name="initialpos" >
  <crystal>
   <varray name="basis" >
    <v>       1.42005454       0.81986888       5.62827908 </v>
    <v>      -1.42005454       0.81986888       5.62827908 </v>
    <v>       0.00000000      -1.63973774       5.62827908 </v>
   </varray>
   <i name="volume">     39.31663112 </i>
   <varray name="rec_basis" >
    <v>       0.35209915       0.20328454       0.05922473 </v>
    <v>      -0.35209915       0.20328454       0.05922473 </v>
    <v>      -0.00000000      -0.40656908       0.05922473 </v>
   </varray>
  </crystal>
  <varray name="positions" >
   <v>       0.00000000       0.00000000       0.00000000 </v>
   <v>       0.50000000       0.50000000       0.50000000 </v>
   <v>       0.10956395       0.10956395       0.10956395 </v>
   <v>       0.89043605       0.89043605       0.89043605 </v>
  </varray>
 </structure>
 <calculation>
  <scstep>
   <time name="dav">    0.10    0.10</time>
   <time name="total">    0.19    0.19</time>
   <energy>
    <i name="alphaZ">    167.28213848 </i>
    <i name="ewald">  -3351.06778565 </i>
    <i name="hartreedc">  -2400.81965511 </i>
    <i name="XCdc">    180.92806670 </i>
    <i name="pawpsdc">   5402.02430262 </i>
    <i name="pawaedc">  -5725.83564433 </i>
    <i name="eentropy">     -0.00000000 </i>
    <i name="bandstr">   -211.65924475 </i>
    <i name="atom">   6293.50105541 </i>
    <i name="e_fr_energy">    354.35323338 </i>
    <i name="e_wo_entrp">    354.35323338 </i>
    <i name="e_0_energy">    354.35323338 </i>
   </energy>
  </scstep>
  <scstep>
   <time name="dav">    0.10    0.10</time>
   <time name="total">    0.10    0.10</time>
   <energy>
    <i name="e_fr_energy">      0.75338927 </i>
    <i name="e_wo_entrp">      0.75338927 </i>
    <i name="e_0_energy">      0.75338927 </i>
   </energy>
  </scstep>
  <scstep>
   <time name="dav">    0.09    0.09</time>
   <time name="total">    0.09    0.09</time>
   <energy>
    <i name="e_fr_energy">    -20.45048884 </i>
    <i name="e_wo_entrp">    -20.45048884 </i>
    <i name="e_0_energy">    -20.45048884 </i>
   </energy>
  </scstep>
  <scstep>
   <time name="dav">    0.09    0.09</time>
   <time name="total">    0.09    0.09</time>
   <energy>
    <i name="e_fr_energy">    -20.98380844 </i>
    <i name="e_wo_entrp">    -20.98380844 </i>
    <i name="e_0_energy">    -20.98380844 </i>
   </energy>
  </scstep>
  <scstep>
   <time name="dav">    0.08    0.08</time>
   <time name="total">    0.08    0.08</time>
   <energy>
    <i name="e_fr_energy">    -21.03256753 </i>
    <i name="e_wo_entrp">    -21.03256753 </i>
    <i name="e_0_energy">    -21.03256753 </i>
   </energy>
  </scstep>
  <scstep>
   <time name="diag">    0.02    0.02</time>
   <time name="diis">    0.14    0.14</time>
   <time name="orth">    0.00    0.00</time>
   <time name="total">    0.15    0.15</time>
   <energy>
    <i name="e_fr_energy">    -21.03426270 </i>
    <i name="e_wo_entrp">    -21.03426270 </i>
    <i name="e_0_energy">    -21.03426270 </i>
   </energy>
  </scstep>
  <scstep>
   <time name="diag">    0.02    0.02</time>
   <time name="diis">    0.12    0.12</time>
   <time name="orth">    0.00    0.00</time>
   <time name="total">    0.14    0.14</time>
   <energy>
    <i name="e_fr_energy">    -21.03439256 </i>
    <i name="e_wo_entrp">    -21.03439256 </i>
    <i name="e_0_energy">    -21.03439256 </i>
   </energy>
  </scstep>
  <scstep>
   <time name="diag">    0.02    0.02</time>
   <time name="diis">    0.12    0.12</time>
   <time name="orth">    0.00    0.00</time>
   <time name="total">    0.14    0.14</time>
   <energy>
    <i name="e_fr_energy">    -21.03446080 </i>
    <i name="e_wo_entrp">    -21.03446080 </i>
    <i name="e_0_energy">    -21.03446080 </i>
   </energy>
  </scstep>
  <scstep>
   <time name="diag">    0.02    0.02</time>
   <time name="diis">    0.11    0.11</time>
   <time name="orth">    0.00    0.00</time>
   <time name="total">    0.12    0.13</time>
   <energy>
    <i name="e_fr_energy">    -21.03447251 </i>
    <i name="e_wo_entrp">    -21.03447251 </i>
    <i name="e_0_energy">    -21.03447251 </i>
   </energy>
  </scstep>
  <scstep>
   <time name="diag">    0.02    0.02</time>
   <time name="diis">    0.11    0.11</time>
   <time name="orth">    0.00    0.00</time>
   <time name="total">    0.13    0.13</time>
   <energy>
    <i name="e_fr_energy">    -21.03447929 </i>
    <i name="e_wo_entrp">    -21.03447929 </i>
    <i name="e_0_energy">    -21.03447929 </i>
   </energy>
  </scstep>
  <scstep>
   <time name="diag">    0.02    0.02</time>
   <time name="diis">    0.11    0.11</time>
   <time name="orth">    0.00    0.00</time>
   <time name="total">    0.12    0.12</time>
   <energy>
    <i name="e_fr_energy">    -21.03448443 </i>
    <i name="e_wo_entrp">    -21.03448443 </i>
    <i name="e_0_energy">    -21.03448443 </i>
   </energy>
  </scstep>
  <scstep>
   <time name="diag">    0.02    0.02</time>
   <time name="diis">    0.10    0.10</time>
   <time name="orth">    0.00    0.00</time>
   <time name="total">    0.12    0.12</time>
   <energy>
    <i name="e_fr_energy">    -21.03448647 </i>
    <i name="e_wo_entrp">    -21.03448647 </i>
    <i name="e_0_energy">    -21.03448647 </i>
   </energy>
  </scstep>
  <scstep>
   <time name="diag">    0.02    0.02</time>
   <time name="diis">    0.09    0.09</time>
   <time name="orth">    0.00    0.00</time>
   <time name="total">    0.11    0.11</time>
   <energy>
    <i name="e_fr_energy">    -21.03448689 </i>
    <i name="e_wo_entrp">    -21.03448689 </i>
    <i name="e_0_energy">    -21.03448689 </i>
   </energy>
  </scstep>
  <scstep>
   <time name="diag">    0.02    0.02</time>
   <time name="diis">    0.09    0.09</time>
   <time name="orth">    0.00    0.00</time>
   <time name="total">    0.11    0.11</time>
   <energy>
    <i name="e_fr_energy">    -21.03448770 </i>
    <i name="e_wo_entrp">    -21.03448770 </i>
    <i name="e_0_energy">    -21.03448770 </i>
   </energy>
  </scstep>
  <scstep>
   <time name="diag">    0.02    0.02</time>
   <time name="diis">    0.09    0.09</time>
   <time name="orth">    0.00    0.00</time>
   <time name="total">    0.11    0.11</time>
   <energy>
    <i name="e_fr_energy">    -21.03448798 </i>
    <i name="e_wo_entrp">    -21.03448798 </i>
    <i name="e_0_energy">    -21.03448798 </i>
   </energy>
  </scstep>
  <scstep>
   <time name="diag">    0.02    0.02</time>
   <time name="diis">    0.09    0.09</time>
   <time name="orth">    0.00    0.00</time>
   <time name="total">    0.10    0.10</time>
   <energy>
    <i name="e_fr_energy">    -21.03448811 </i>
    <i name="e_wo_entrp">    -21.03448811 </i>
    <i name="e_0_energy">    -21.03448811 </i>
   </energy>
  </scstep>
  <scstep>
   <time name="diag">    0.02    0.02</time>
   <time name="diis">    0.08    0.08</time>
   <time name="orth">    0.00    0.00</time>
   <time name="total">    0.10    0.10</time>
   <energy>
    <i name="alphaZ">    167.28213848 </i>
    <i name="ewald">  -3351.06778565 </i>
    <i name="hartreedc">  -2400.81965511 </i>
    <i name="XCdc">    180.92806670 </i>
    <i name="pawpsdc">   5402.02430262 </i>
    <i name="pawaedc">  -5725.83564433 </i>
    <i name="eentropy">     -0.00000000 </i>
    <i name="bandstr">   -587.04696632 </i>
    <i name="atom">   6293.50105541 </i>
    <i name="e_fr_energy">    -21.03448819 </i>
    <i name="e_wo_entrp">    -21.03448819 </i>
    <i name="e_0_energy">    -21.03448819 </i>
   </energy>
  </scstep>
  <structure>
   <crystal>
    <varray name="basis" >
     <v>       1.42005454       0.81986888       5.62827908 </v>
     <v>      -1.42005454       0.81986888       5.62827908 </v>
     <v>       0.00000000      -1.63973774       5.62827908 </v>
    </varray>
    <i name="volume">     39.31663112 </i>
    <varray name="rec_basis" >
     <v>       0.35209915       0.20328454       0.05922473 </v>
     <v>      -0.35209915       0.20328454       0.05922473 </v>
     <v>      -0.00000000      -0.40656908       0.05922473 </v>
    </varray>
   </crystal>
   <varray name="positions" >
    <v>       0.00000000       0.00000000       0.00000000 </v>
    <v>       0.50000000       0.50000000       0.50000000 </v>
    <v>       0.10956395       0.10956395       0.10956395 </v>
    <v>       0.89043605       0.89043605       0.89043605 </v>
   </varray>
  </structure>
  <varray name="forces" >
   <v>       0.00000000      -0.00000000       0.00000000 </v>
   <v>       0.00000000      -0.00000000       0.00000000 </v>
   <v>      -0.00000000       0.00000000       2.00639018 </v>
   <v>      -0.00000000      -0.00000000      -2.00639018 </v>
  </varray>
  <varray name="stress" >
   <v>   -2786.55649683       0.00000000       0.00000000 </v>
   <v>       0.00000000   -2786.55648444      -0.00000148 </v>
   <v>       0.00000000      -0.00000148   -2505.44237674 </v>
  </varray>
  <energy>
   <i name="e_fr_energy">    -21.03448819 </i>
   <i name="e_wo_entrp">    -21.03448819 </i>
   <i name="e_0_energy">     -0.00000000 </i>
  </energy>
  <time name="totalsc">    2.51    2.53</time>
  <eigenvalues>
   <array>
    <dimension dim="1">band</dimension>
    <dimension dim="2">kpoint</dimension>
    <dimension dim="3">spin</dimension>
    <field>eigene</field>
    <field>occ</field>
    <set>
     <set comment="spin 1">
      <set comment="kpoint 1">
       <r> -105.4674    1.0000 </r>
       <r>  -63.1623    1.0000 </r>
       <r>  -62.9513    1.0000 </r>
       <r>  -62.9513    1.0000 </r>
       <r>  -15.2681    1.0000 </r>
       <r>  -13.0915    1.0000 </r>
       <r>   -2.5915    1.0000 </r>
       <r>    1.9165    1.0000 </r>
       <r>    1.9877    1.0000 </r>
       <r>    1.9877    1.0000 </r>
       <r>    2.0487    1.0000 </r>
       <r>    3.1931    1.0000 </r>
       <r>    3.1931    1.0000 </r>
       <r>    4.0390    1.0000 </r>
       <r>    4.0390    1.0000 </r>
       <r>    4.7777    1.0000 </r>
       <r>    4.7777    1.0000 </r>
       <r>    7.8047    0.0000 </r>
       <r>   11.9065    0.0000 </r>
       <r>   13.1315    0.0000 </r>
       <r>   17.5378    0.0000 </r>
       <r>   19.6510    0.0000 </r>
       <r>   18.9194    0.0000 </r>
       <r>   16.0783    0.0000 </r>
       <r>   24.6602    0.0000 </r>
       <r>   25.9505    0.0000 </r>
       <r>   25.9505    0.0000 </r>
       <r>   26.9543    0.0000 </r>
       <r>   26.9543    0.0000 </r>
       <r>   27.2139    0.0000 </r>
       <r>   22.1538    0.0000 </r>
       <r>   30.2141    0.0000 </r>
       <r>   31.0440    0.0000 </r>
       <r>   31.0910    0.0000 </r>
       <r>   31.8675    0.0000 </r>
       <r>   32.3276    0.0000 </r>
      </set>
     </set>
    </set>
   </array>
  </eigenvalues>
  <separator name="orbital magnetization" >
   <v name="MAGDIPOLOUT">      0.00000000      0.00000000      0.00000000</v>
  </separator>
  <dos>
   <i name="efermi">      5.93410544 </i>
   <total>
    <array>
     <dimension dim="1">gridpoints</dimension>
     <dimension dim="2">spin</dimension>
     <field>energy</field>
     <field>total</field>
     <field>integrated</field>
     <set>
      <set comment="spin 1">
       <r>  -112.3572     0.0000     0.0000 </r>
       <r>  -111.8519     0.0000     0.0000 </r>
       <r>  -111.3467     0.0000     0.0000 </r>
       <r>  -110.8414     0.0000     0.0000 </r>
       <r>  -110.3362     0.0000     0.0000 </r>
       <r>  -109.8309     0.0000     0.0000 </r>
       <r>  -109.3257     0.0000     0.0000 </r>
       <r>  -108.8204     0.0000     0.0000 </r>
       <r>  -108.3152     0.0000     0.0000 </r>
       <r>  -107.8099     0.0000     0.0000 </r>
       <r>  -107.3047     0.0000     0.0000 </r>
       <r>  -106.7994     0.0000     0.0000 </r>
       <r>  -106.2942     0.0000     0.0000 </r>
       <r>  -105.7889     0.0455     0.0230 </r>
       <r>  -105.2837     3.5292     1.8061 </r>
       <r>  -104.7784     0.3838     2.0000 </r>
       <r>  -104.2732     0.0000     2.0000 </r>
       <r>  -103.7679     0.0000     2.0000 </r>
       <r>  -103.2627     0.0000     2.0000 </r>
       <r>  -102.7574     0.0000     2.0000 </r>
       <r>  -102.2522     0.0000     2.0000 </r>
       <r>  -101.7470     0.0000     2.0000 </r>
       <r>  -101.2417     0.0000     2.0000 </r>
       <r>  -100.7365     0.0000     2.0000 </r>
       <r>  -100.2312     0.0000     2.0000 </r>
       <r>   -99.7260     0.0000     2.0000 </r>
       <r>   -99.2207     0.0000     2.0000 </r>
       <r>   -98.7155     0.0000     2.0000 </r>
       <r>   -98.2102     0.0000     2.0000 </r>
       <r>   -97.7050     0.0000     2.0000 </r>
       <r>   -97.1997     0.0000     2.0000 </r>
       <r>   -96.6945     0.0000     2.0000 </r>
       <r>   -96.1892     0.0000     2.0000 </r>
       <r>   -95.6840     0.0000     2.0000 </r>
       <r>   -95.1787     0.0000     2.0000 </r>
       <r>   -94.6735     0.0000     2.0000 </r>
       <r>   -94.1682     0.0000     2.0000 </r>
       <r>   -93.6630     0.0000     2.0000 </r>
       <r>   -93.1577     0.0000     2.0000 </r>
       <r>   -92.6525     0.0000     2.0000 </r>
       <r>   -92.1472     0.0000     2.0000 </r>
       <r>   -91.6420     0.0000     2.0000 </r>
       <r>   -91.1367     0.0000     2.0000 </r>
       <r>   -90.6315     0.0000     2.0000 </r>
       <r>   -90.1262     0.0000     2.0000 </r>
       <r>   -89.6210     0.0000     2.0000 </r>
       <r>   -89.1157     0.0000     2.0000 </r>
       <r>   -88.6105     0.0000     2.0000 </r>
       <r>   -88.1052     0.0000     2.0000 </r>
       <r>   -87.6000     0.0000     2.0000 </r>
       <r>   -87.0948     0.0000     2.0000 </r>
       <r>   -86.5895     0.0000     2.0000 </r>
       <r>   -86.0843     0.0000     2.0000 </r>
       <r>   -85.5790     0.0000     2.0000 </r>
       <r>   -85.0738     0.0000     2.0000 </r>
       <r>   -84.5685     0.0000     2.0000 </r>
       <r>   -84.0633     0.0000     2.0000 </r>
       <r>   -83.5580     0.0000     2.0000 </r>
       <r>   -83.0528     0.0000     2.0000 </r>
       <r>   -82.5475     0.0000     2.0000 </r>
       <r>   -82.0423     0.0000     2.0000 </r>
       <r>   -81.5370     0.0000     2.0000 </r>
       <r>   -81.0318     0.0000     2.0000 </r>
       <r>   -80.5265     0.0000     2.0000 </r>
       <r>   -80.0213     0.0000     2.0000 </r>
       <r>   -79.5160     0.0000     2.0000 </r>
       <r>   -79.0108     0.0000     2.0000 </r>
       <r>   -78.5055     0.0000     2.0000 </r>
       <r>   -78.0003     0.0000     2.0000 </r>
       <r>   -77.4950     0.0000     2.0000 </r>
       <r>   -76.9898     0.0000     2.0000 </r>
       <r>   -76.4845     0.0000     2.0000 </r>
       <r>   -75.9793     0.0000     2.0000 </r>
       <r>   -75.4740     0.0000     2.0000 </r>
       <r>   -74.9688     0.0000     2.0000 </r>
       <r>   -74.4635     0.0000     2.0000 </r>
       <r>   -73.9583     0.0000     2.0000 </r>
       <r>   -73.4530     0.0000     2.0000 </r>
       <r>   -72.9478     0.0000     2.0000 </r>
       <r>   -72.4425     0.0000     2.0000 </r>
       <r>   -71.9373     0.0000     2.0000 </r>
       <r>   -71.4321     0.0000     2.0000 </r>
       <r>   -70.9268     0.0000     2.0000 </r>
       <r>   -70.4216     0.0000     2.0000 </r>
       <r>   -69.9163     0.0000     2.0000 </r>
       <r>   -69.4111     0.0000     2.0000 </r>
       <r>   -68.9058     0.0000     2.0000 </r>
       <r>   -68.4006     0.0000     2.0000 </r>
       <r>   -67.8953     0.0000     2.0000 </r>
       <r>   -67.3901     0.0000     2.0000 </r>
       <r>   -66.8848     0.0000     2.0000 </r>
       <r>   -66.3796     0.0000     2.0000 </r>
       <r>   -65.8743     0.0000     2.0000 </r>
       <r>   -65.3691     0.0000     2.0000 </r>
       <r>   -64.8638     0.0000     2.0000 </r>
       <r>   -64.3586     0.0000     2.0000 </r>
       <r>   -63.8533     0.0000     2.0000 </r>
       <r>   -63.3481     0.3941     2.1991 </r>
       <r>   -62.8428     9.6807     7.0903 </r>
       <r>   -62.3376     1.8005     8.0000 </r>
       <r>   -61.8323     0.0001     8.0000 </r>
       <r>   -61.3271     0.0000     8.0000 </r>
       <r>   -60.8218     0.0000     8.0000 </r>
       <r>   -60.3166     0.0000     8.0000 </r>
       <r>   -59.8113     0.0000     8.0000 </r>
       <r>   -59.3061     0.0000     8.0000 </r>
       <r>   -58.8008     0.0000     8.0000 </r>
       <r>   -58.2956     0.0000     8.0000 </r>
       <r>   -57.7903     0.0000     8.0000 </r>
       <r>   -57.2851     0.0000     8.0000 </r>
       <r>   -56.7798     0.0000     8.0000 </r>
       <r>   -56.2746     0.0000     8.0000 </r>
       <r>   -55.7694     0.0000     8.0000 </r>
       <r>   -55.2641     0.0000     8.0000 </r>
       <r>   -54.7589     0.0000     8.0000 </r>
       <r>   -54.2536     0.0000     8.0000 </r>
       <r>   -53.7484     0.0000     8.0000 </r>
       <r>   -53.2431     0.0000     8.0000 </r>
       <r>   -52.7379     0.0000     8.0000 </r>
       <r>   -52.2326     0.0000     8.0000 </r>
       <r>   -51.7274     0.0000     8.0000 </r>
       <r>   -51.2221     0.0000     8.0000 </r>
       <r>   -50.7169     0.0000     8.0000 </r>
       <r>   -50.2116     0.0000     8.0000 </r>
       <r>   -49.7064     0.0000     8.0000 </r>
       <r>   -49.2011     0.0000     8.0000 </r>
       <r>   -48.6959     0.0000     8.0000 </r>
       <r>   -48.1906     0.0000     8.0000 </r>
       <r>   -47.6854     0.0000     8.0000 </r>
       <r>   -47.1801     0.0000     8.0000 </r>
       <r>   -46.6749     0.0000     8.0000 </r>
       <r>   -46.1696     0.0000     8.0000 </r>
       <r>   -45.6644     0.0000     8.0000 </r>
       <r>   -45.1591     0.0000     8.0000 </r>
       <r>   -44.6539     0.0000     8.0000 </r>
       <r>   -44.1486     0.0000     8.0000 </r>
       <r>   -43.6434     0.0000     8.0000 </r>
       <r>   -43.1381     0.0000     8.0000 </r>
       <r>   -42.6329     0.0000     8.0000 </r>
       <r>   -42.1276     0.0000     8.0000 </r>
       <r>   -41.6224     0.0000     8.0000 </r>
       <r>   -41.1171     0.0000     8.0000 </r>
       <r>   -40.6119     0.0000     8.0000 </r>
       <r>   -40.1067     0.0000     8.0000 </r>
       <r>   -39.6014     0.0000     8.0000 </r>
       <r>   -39.0962     0.0000     8.0000 </r>
       <r>   -38.5909     0.0000     8.0000 </r>
       <r>   -38.0857     0.0000     8.0000 </r>
       <r>   -37.5804     0.0000     8.0000 </r>
       <r>   -37.0752     0.0000     8.0000 </r>
       <r>   -36.5699     0.0000     8.0000 </r>
       <r>   -36.0647     0.0000     8.0000 </r>
       <r>   -35.5594     0.0000     8.0000 </r>
       <r>   -35.0542     0.0000     8.0000 </r>
       <r>   -34.5489     0.0000     8.0000 </r>
       <r>   -34.0437     0.0000     8.0000 </r>
       <r>   -33.5384     0.0000     8.0000 </r>
       <r>   -33.0332     0.0000     8.0000 </r>
       <r>   -32.5279     0.0000     8.0000 </r>
       <r>   -32.0227     0.0000     8.0000 </r>
       <r>   -31.5174     0.0000     8.0000 </r>
       <r>   -31.0122     0.0000     8.0000 </r>
       <r>   -30.5069     0.0000     8.0000 </r>
       <r>   -30.0017     0.0000     8.0000 </r>
       <r>   -29.4964     0.0000     8.0000 </r>
       <r>   -28.9912     0.0000     8.0000 </r>
       <r>   -28.4859     0.0000     8.0000 </r>
       <r>   -27.9807     0.0000     8.0000 </r>
       <r>   -27.4754     0.0000     8.0000 </r>
       <r>   -26.9702     0.0000     8.0000 </r>
       <r>   -26.4649     0.0000     8.0000 </r>
       <r>   -25.9597     0.0000     8.0000 </r>
       <r>   -25.4544     0.0000     8.0000 </r>
       <r>   -24.9492     0.0000     8.0000 </r>
       <r>   -24.4440     0.0000     8.0000 </r>
       <r>   -23.9387     0.0000     8.0000 </r>
       <r>   -23.4335     0.0000     8.0000 </r>
       <r>   -22.9282     0.0000     8.0000 </r>
       <r>   -22.4230     0.0000     8.0000 </r>
       <r>   -21.9177     0.0000     8.0000 </r>
       <r>   -21.4125     0.0000     8.0000 </r>
       <r>   -20.9072     0.0000     8.0000 </r>
       <r>   -20.4020     0.0000     8.0000 </r>
       <r>   -19.8967     0.0000     8.0000 </r>
       <r>   -19.3915     0.0000     8.0000 </r>
       <r>   -18.8862     0.0000     8.0000 </r>
       <r>   -18.3810     0.0000     8.0000 </r>
       <r>   -17.8757     0.0000     8.0000 </r>
       <r>   -17.3705     0.0000     8.0000 </r>
       <r>   -16.8652     0.0000     8.0000 </r>
       <r>   -16.3600     0.0000     8.0000 </r>
       <r>   -15.8547     0.0001     8.0000 </r>
       <r>   -15.3495     1.1185     8.5652 </r>
       <r>   -14.8442     2.8344     9.9973 </r>
       <r>   -14.3390     0.0054    10.0000 </r>
       <r>   -13.8337     0.0000    10.0000 </r>
       <r>   -13.3285     0.1858    10.0939 </r>
       <r>   -12.8232     3.6583    11.9422 </r>
       <r>   -12.3180     0.1144    12.0000 </r>
       <r>   -11.8127     0.0000    12.0000 </r>
       <r>   -11.3075     0.0000    12.0000 </r>
       <r>   -10.8022     0.0000    12.0000 </r>
       <r>   -10.2970     0.0000    12.0000 </r>
       <r>    -9.7917     0.0000    12.0000 </r>
       <r>    -9.2865     0.0000    12.0000 </r>
       <r>    -8.7813     0.0000    12.0000 </r>
       <r>    -8.2760     0.0000    12.0000 </r>
       <r>    -7.7708     0.0000    12.0000 </r>
       <r>    -7.2655     0.0000    12.0000 </r>
       <r>    -6.7603     0.0000    12.0000 </r>
       <r>    -6.2550     0.0000    12.0000 </r>
       <r>    -5.7498     0.0000    12.0000 </r>
       <r>    -5.2445     0.0000    12.0000 </r>
       <r>    -4.7393     0.0000    12.0000 </r>
       <r>    -4.2340     0.0000    12.0000 </r>
       <r>    -3.7288     0.0000    12.0000 </r>
       <r>    -3.2235     0.0000    12.0000 </r>
       <r>    -2.7183     0.7320    12.3699 </r>
       <r>    -2.2130     3.2117    13.9925 </r>
       <r>    -1.7078     0.0148    14.0000 </r>
       <r>    -1.2025     0.0000    14.0000 </r>
       <r>    -0.6973     0.0000    14.0000 </r>
       <r>    -0.1920     0.0000    14.0000 </r>
       <r>     0.3132     0.0000    14.0000 </r>
       <r>     0.8185     0.0000    14.0000 </r>
       <r>     1.3237     0.0001    14.0000 </r>
       <r>     1.8290     2.3345    15.1795 </r>
       <r>     2.3342    13.3504    21.9248 </r>
       <r>     2.8395     0.1979    22.0248 </r>
       <r>     3.3447     6.7453    25.4329 </r>
       <r>     3.8500     1.8402    26.3627 </r>
       <r>     4.3552     7.1099    29.9549 </r>
       <r>     4.8605     5.7953    32.8830 </r>
       <r>     5.3657     2.2107    33.9999 </r>
       <r>     5.8709     0.0001    34.0000 </r>
       <r>     6.3762     0.0000    34.0000 </r>
       <r>     6.8814     0.0000    34.0000 </r>
       <r>     7.3867     0.0062    34.0031 </r>
       <r>     7.8919     2.8886    35.4626 </r>
       <r>     8.3972     1.0636    36.0000 </r>
       <r>     8.9024     0.0001    36.0000 </r>
       <r>     9.4077     0.0000    36.0000 </r>
       <r>     9.9129     0.0000    36.0000 </r>
       <r>    10.4182     0.0000    36.0000 </r>
       <r>    10.9234     0.0000    36.0000 </r>
       <r>    11.4287     0.0014    36.0007 </r>
       <r>    11.9339     2.2824    37.1539 </r>
       <r>    12.4392     1.6743    37.9998 </r>
       <r>    12.9444     0.3681    38.1858 </r>
       <r>    13.4497     3.5422    39.9755 </r>
       <r>    13.9549     0.0484    40.0000 </r>
       <r>    14.4602     0.0000    40.0000 </r>
       <r>    14.9654     0.0000    40.0000 </r>
       <r>    15.4707     0.0000    40.0000 </r>
       <r>    15.9759     0.9280    40.4689 </r>
       <r>    16.4812     3.0217    41.9956 </r>
       <r>    16.9864     0.0089    42.0001 </r>
       <r>    17.4917     1.4729    42.7443 </r>
       <r>    17.9969     2.4830    43.9988 </r>
       <r>    18.5022     0.0086    44.0032 </r>
       <r>    19.0074     2.8954    45.4661 </r>
       <r>    19.5127     1.7059    46.3280 </r>
       <r>    20.0179     3.2905    47.9905 </r>
       <r>    20.5232     0.0187    48.0000 </r>
       <r>    21.0284     0.0000    48.0000 </r>
       <r>    21.5336     0.0000    48.0000 </r>
       <r>    22.0389     0.8244    48.4165 </r>
       <r>    22.5441     3.1226    49.9942 </r>
       <r>    23.0494     0.0114    50.0000 </r>
       <r>    23.5546     0.0000    50.0000 </r>
       <r>    24.0599     0.0000    50.0000 </r>
       <r>    24.5651     0.9924    50.5014 </r>
       <r>    25.0704     2.9586    51.9963 </r>
       <r>    25.5756     0.0392    52.0161 </r>
       <r>    26.0809     6.4737    55.2869 </r>
       <r>    26.5861     1.4479    56.0185 </r>
       <r>    27.0914     7.3289    59.7214 </r>
       <r>    27.5966     4.4964    61.9932 </r>
       <r>    28.1019     0.0135    62.0000 </r>
       <r>    28.6071     0.0000    62.0000 </r>
       <r>    29.1124     0.0000    62.0000 </r>
       <r>    29.6176     0.0000    62.0000 </r>
       <r>    30.1229     1.0267    62.5187 </r>
       <r>    30.6281     2.9336    64.0009 </r>
       <r>    31.1334     5.3589    66.7085 </r>
       <r>    31.6386     2.7648    68.1054 </r>
       <r>    32.1439     4.0333    70.1432 </r>
       <r>    32.6491     3.6295    71.9770 </r>
       <r>    33.1544     0.0455    72.0000 </r>
       <r>    33.6596     0.0000    72.0000 </r>
       <r>    34.1649     0.0000    72.0000 </r>
       <r>    34.6701     0.0000    72.0000 </r>
       <r>    35.1754     0.0000    72.0000 </r>
       <r>    35.6806     0.0000    72.0000 </r>
       <r>    36.1859     0.0000    72.0000 </r>
       <r>    36.6911     0.0000    72.0000 </r>
       <r>    37.1963     0.0000    72.0000 </r>
       <r>    37.7016     0.0000    72.0000 </r>
       <r>    38.2068     0.0000    72.0000 </r>
       <r>    38.7121     0.0000    72.0000 </r>
       <r>    39.2173     0.0000    72.0000 </r>
      </set>
     </set>
    </array>
   </total>
  </dos>
 </calculation>
 <structure name="finalpos" >
  <crystal>
   <varray name="basis" >
    <v>       1.42005454       0.81986888       5.62827908 </v>
    <v>      -1.42005454       0.81986888       5.62827908 </v>
    <v>       0.00000000      -1.63973774       5.62827908 </v>
   </varray>
   <i name="volume">     39.31663112 </i>
   <varray name="rec_basis" >
    <v>       0.35209915       0.20328454       0.05922473 </v>
    <v>      -0.35209915       0.20328454       0.05922473 </v>
    <v>      -0.00000000      -0.40656908       0.05922473 </v>
   </varray>
  </crystal>
  <varray name="positions" >
   <v>       0.00000000       0.00000000       0.00000000 </v>
   <v>       0.50000000       0.50000000       0.50000000 </v>
   <v>       0.10956395       0.10956395       0.10956395 </v>
   <v>       0.89043605       0.89043605       0.89043605 </v>
  </varray>
 </structure>
</modeling>
